/*--------------------------------*- C++ -*----------------------------------*\
  =========                 |
  \\      /  F ield         | OpenFOAM: The Open Source CFD Toolbox
   \\    /   O peration     | Website:  https://openfoam.org
    \\  /    A nd           | Version:  9
     \\/     M anipulation  |
\*---------------------------------------------------------------------------*/
FoamFile
{
    format      ascii;
    class       volScalarField;
    location    "7";
    object      p;
}
// * * * * * * * * * * * * * * * * * * * * * * * * * * * * * * * * * * * * * //

dimensions      [0 2 -2 0 0 0 0];

internalField   nonuniform List<scalar> 
918
(
0.245006
1.00178
0.00740003
0.242532
0.0019927
0.968899
-0.69957
0.453911
0.2247
-0.118839
0.0288637
0.214265
0.828499
0.593849
-1.35877
0.0234432
0.383367
-0.674083
0.213018
0.0156279
0.554094
0.234124
0.235163
0.224817
0.27746
0.567427
0.710644
0.00152028
-0.00291966
-0.000543178
0.00380005
0.00220441
0.00891766
0.853045
0.903552
0.926095
0.198378
-0.231342
-0.522533
-0.645953
-0.57007
-0.764393
0.434899
0.437475
-0.460033
0.456688
0.476801
0.215582
0.223026
0.224441
0.229302
0.225154
0.227113
0.288398
-0.127204
-0.174951
-0.0563638
-0.0370948
0.0882299
0.0296374
0.032944
0.0260345
0.030916
0.156422
0.210415
0.209091
0.216856
0.222786
0.94125
0.913722
0.939495
0.851946
0.869002
0.807015
0.780143
0.615738
0.637111
0.579022
0.567835
-1.82573
-2.84518
-0.741343
-0.48917
0.00488611
0.0291763
0.0284941
0.366561
0.373434
0.378527
0.397701
0.712258
-0.62633
-0.832222
0.218675
0.214333
0.231572
0.230837
0.224779
0.225144
0.020645
0.0229645
0.00402059
0.0129302
0.010875
0.550183
0.544222
0.223845
0.219879
0.23459
0.251047
0.240532
0.00128948
0.28679
0.317674
0.404168
0.563656
0.555606
0.564881
0.684612
0.648087
0.748117
0.772968
0.00531025
-0.000528167
0.0209329
0.00908477
0.0174256
0.192487
0.187532
0.207749
0.201904
0.200253
-0.212992
-0.254856
-0.28688
-0.345418
-0.488383
-0.586986
-0.649475
-0.622069
-0.820639
0.636469
0.413728
0.42059
-0.4358
-0.37366
-0.521741
-0.319561
-0.400831
0.203863
0.210235
0.207298
0.220867
0.216828
0.221934
0.228827
0.225177
0.226713
0.313468
0.372322
0.255419
0.232731
-0.396397
-0.213069
-0.403108
-0.0178062
-0.00712861
0.102482
0.117387
0.0820695
0.0778861
0.00258849
0.0298948
0.0125952
0.0308222
0.0302483
0.14508
0.137577
0.166016
0.173265
0.202367
0.20467
0.204895
0.204195
0.730133
0.753127
0.760628
0.733729
-3.91081
-6.80259
-0.151181
-0.00996002
0.00445136
0.00384262
0.00333493
0.00544157
0.0066465
0.00356425
0.0508121
0.0486552
0.0353714
0.0464736
0.349542
0.359076
0.692074
0.760055
0.63567
0.627718
0.208355
0.211334
0.214875
0.210816
0.0298835
0.0252354
0.0265378
0.482892
0.516857
0.508261
-0.038932
-0.128672
0.0492048
0.073131
0.340526
0.323112
0.337917
0.461941
0.497502
0.778486
0.794418
0.796561
0.803162
0.847502
0.864139
0.827493
0.176443
0.18306
0.17973
0.20912
0.207091
0.207266
0.201275
0.203412
0.203905
-0.363131
-0.700106
0.0905932
-0.0860678
-0.365006
-0.200611
0.661309
0.727776
0.390423
0.402682
0.4076
-0.24696
-0.330729
0.203103
0.182228
0.0967146
0.127508
0.109912
0.701107
0.661382
0.711574
0.685024
0.646504
0.672899
-0.624131
-2.19457
-1.25016
0.346556
0.161242
0.247238
0.0675937
0.0549771
0.0579098
0.750954
0.807731
0.410126
0.530516
0.510902
0.535966
0.56621
0.621664
0.546662
0.580913
0.617695
0.598467
0.479065
0.220236
0.419681
0.743618
0.815467
-0.148822
-0.192868
-0.260441
0.128113
0.155552
0.136729
0.791136
0.793598
0.828609
0.22111
0.223806
0.0123664
0.0183356
0.228312
0.227562
0.00892136
0.00736045
0.240423
-1.05742
-0.159567
0.214309
0.209156
0.220577
-0.06369
0.270296
0.0304516
0.0936591
0.0661341
0.211017
0.164296
0.131666
0.00181362
0.0267361
0.0207145
-0.305372
0.218536
0.215776
0.220298
0.221735
0.222764
0.00777306
0.0107474
0.00828476
0.0187354
0.01475
0.014783
0.19207
0.202606
-0.303658
0.221139
0.224356
0.224439
0.215538
0.222655
0.218617
0.0206154
0.0146547
0.0199993
-0.0394627
0.0703789
0.475641
0.561059
0.45473
0.227958
-0.0193053
0.372938
0.438905
0.343691
0.498951
0.39172
0.438127
-0.0935769
-0.234246
-0.0951074
-0.142055
0.212435
0.210146
0.206402
0.203295
0.22119
0.216997
0.219928
0.216996
0.218425
0.219254
-0.0203846
-0.0356736
-0.084547
-0.159917
0.294704
0.368964
0.226777
0.240802
0.152989
0.0430944
0.0338317
0.0318406
0.031929
0.067374
0.0700823
0.0816259
0.0823439
0.0583047
0.0560423
0.0663742
0.0669328
0.07221
0.206615
0.203643
0.210565
0.215685
0.169521
0.174591
0.146251
0.163767
0.148034
0.0996326
0.127884
0.107481
0.01144
0.0078456
0.00908105
0.0292308
0.0352587
0.0242477
0.0174606
0.0221872
0.0166051
0.0137789
0.024967
0.0264398
-0.241272
-0.377286
0.676995
0.561177
0.329628
0.214672
0.215609
0.212228
0.212908
0.217471
0.224041
0.223364
0.217241
0.203723
0.20455
0.202526
0.201852
-0.213616
-0.370985
-0.277729
-0.347599
-0.395305
0.321656
0.0772824
0.0232541
0.0110448
0.209063
0.749464
0.544927
0.525041
0.520254
-0.532054
-0.133011
-0.471423
0.184475
0.0283238
0.467977
0.518634
0.541404
0.488597
0.439989
-0.424903
0.184711
-0.302167
-0.265872
-0.141226
-0.215916
0.517862
0.372943
0.382608
0.43048
0.463241
0.38541
0.363311
0.362518
0.411672
0.410893
0.175237
-0.0178887
-0.0596718
-0.0995054
0.361025
0.225322
0.282207
0.201363
0.206264
0.209785
0.209133
0.195749
0.201832
0.200976
0.201214
0.20373
0.212342
0.211117
0.20961
0.211971
-0.0153226
-0.0127472
-0.0385537
-0.184736
-0.174395
-0.256219
-0.106412
0.137094
0.11147
0.305771
0.385881
0.0692269
-0.0826361
-0.0613607
0.0393706
0.158969
0.17363
0.121671
0.169636
0.174578
0.147333
0.213459
0.204444
0.048633
0.0602812
0.0433892
0.0388986
0.101052
0.12377
0.119413
0.0575938
0.0590064
0.0388292
0.0376768
0.0859498
0.0566477
0.0680079
0.0742219
0.031806
0.0320398
0.0368639
0.0489574
0.0443196
0.0500377
0.202385
0.202143
0.204182
0.217015
0.224602
0.240236
0.211815
0.188362
0.179824
0.18304
0.165267
0.17638
0.16858
0.178378
0.190677
0.198439
0.199701
0.200407
0.188437
0.189012
0.183525
0.18528
0.162103
0.142256
0.13391
0.026017
0.017463
0.0252988
0.0186714
0.016778
0.0202801
0.0503942
0.0423423
0.0449839
0.041346
0.0470793
0.0238959
0.0232608
-0.0926948
0.0346577
-0.291912
-0.287625
-0.398702
0.658764
0.729212
0.564733
0.479782
0.509418
0.603632
0.631961
0.401643
0.479153
0.479052
0.550717
0.720703
0.210937
0.214021
0.211538
0.207912
0.209587
-0.169666
-0.199107
-0.228866
-0.24759
-0.314669
-0.353814
0.146524
0.46294
0.4299
0.201625
0.314521
0.331369
0.272813
0.301963
0.305917
0.134783
0.206525
0.259018
0.215101
0.25351
0.274711
0.246849
0.269987
0.218495
0.181199
0.182097
0.128761
0.140633
0.122781
0.105545
0.203221
0.181385
0.189585
0.182071
0.205761
0.229728
0.223477
0.24095
0.258648
0.190603
0.157231
0.16331
0.184629
0.154163
0.165751
0.177017
-0.852849
-0.900387
-0.467967
-0.649641
-0.580431
-0.416211
-0.498022
-0.629137
-0.424684
-1.00301
-0.807244
-1.40179
0.0378067
0.775403
0.495206
0.450364
0.465608
0.441332
0.450167
0.500527
0.491377
0.34842
0.365784
0.37019
0.317848
0.346365
0.41679
0.395925
0.14492
0.0463645
-0.00846196
0.00891879
-0.110694
-0.0846762
0.122052
0.053781
-0.0118112
-0.00100745
0.175131
0.0636509
0.128492
0.164852
0.0994452
0.0669566
0.246564
0.313
0.296925
0.273196
0.191756
0.203247
0.236788
0.278305
0.300148
0.33736
0.201537
0.207852
0.209532
0.205832
0.203944
0.205879
0.2059
0.206726
0.208605
0.209097
0.208979
0.029077
0.0358746
0.00660523
0.015653
0.0355871
0.0213364
0.0660847
0.0402976
0.0484082
0.0521126
0.0269757
0.00915424
0.0198984
0.0354838
0.161448
0.192014
0.186247
0.140468
0.246704
0.35078
0.401527
0.354766
0.215294
0.236671
0.278982
0.0954744
0.0980218
0.0861133
0.108251
0.106664
0.044867
0.0418037
0.04305
0.0499004
0.0479693
0.0362859
0.0300445
0.0307008
0.0317297
0.0353057
0.0354913
0.18996
0.184228
0.183617
0.177325
0.178062
0.191957
0.19454
0.195727
0.197865
0.199355
0.194437
0.198571
0.199628
0.0380132
0.0259839
0.0302537
0.0321826
0.0302489
0.0253193
0.0269016
0.234706
0.128719
0.225252
0.0841089
-0.168168
-0.0589077
0.319865
0.4904
0.336046
0.634267
0.587904
0.424661
0.448437
0.623843
0.401773
0.616206
0.54188
0.687041
0.664258
0.738967
0.603684
-0.40574
-0.283154
-0.130717
-0.746759
-0.573136
-0.098196
-0.175845
-0.126831
-0.197672
-0.127448
-0.248646
-0.27876
-0.388161
-0.0180299
-0.159994
0.0307661
-0.336092
-0.340989
0.00568859
-0.477303
-0.230227
0.310182
0.330193
0.346194
0.316694
0.344557
0.264294
0.259686
0.273419
0.287181
0.275633
-1.12296
-0.974909
-1.66033
-0.939761
-0.568261
0.120483
-0.103348
0.503714
0.35445
0.473077
0.429581
0.380091
0.322365
0.322244
0.375815
0.0505378
0.1586
0.128522
0.14583
0.0577387
-0.0114386
0.289422
0.278805
0.32006
0.339521
0.307936
0.341759
0.200411
0.197806
0.201255
0.198449
0.19145
0.191236
0.112239
0.0821458
0.120431
0.104782
0.0689198
0.0588875
0.0442503
0.0404104
0.037411
0.0371802
0.0424985
0.0441929
0.207759
0.199863
0.0943064
0.186722
-0.146312
-0.108551
-0.179707
0.00439368
-0.0155382
-0.0753119
0.45051
0.605997
0.535987
0.572177
0.474584
0.485652
0.181019
-0.131226
-0.0270651
0.110181
0.243988
-0.235673
-0.754487
-0.570143
0.634664
0.586054
0.341428
0.161272
-0.0641673
0.227498
0.196561
0.141647
0.193494
0.266237
0.270828
-0.561135
-0.507401
-0.391963
-0.303181
-0.880401
-0.518565
-0.581287
-0.546482
-0.737299
)
;

boundaryField
{
    wall-4
    {
        type            zeroGradient;
    }
    velocity-inlet-5
    {
        type            zeroGradient;
    }
    velocity-inlet-6
    {
        type            zeroGradient;
    }
    pressure-outlet-7
    {
        type            fixedValue;
        value           uniform 0;
    }
    wall-8
    {
        type            zeroGradient;
    }
    frontAndBackPlanes
    {
        type            empty;
    }
}


// ************************************************************************* //
