/*--------------------------------*- C++ -*----------------------------------*\
  =========                 |
  \\      /  F ield         | OpenFOAM: The Open Source CFD Toolbox
   \\    /   O peration     | Website:  https://openfoam.org
    \\  /    A nd           | Version:  9
     \\/     M anipulation  |
\*---------------------------------------------------------------------------*/
FoamFile
{
    format      ascii;
    class       surfaceScalarField;
    location    "7";
    object      phi;
}
// * * * * * * * * * * * * * * * * * * * * * * * * * * * * * * * * * * * * * //

dimensions      [0 3 -1 0 0 0 0];

internalField   nonuniform List<scalar> 
1300
(
3.75095
5.62643
-6.37734
3.75095
-6.26167
5.62643
-4.88508
4.88508
-1.57628
1.57628
1.87993
1.87102
-5.26864
5.26864
-5.33772
5.33772
-2.95837
2.95837
-5.24626
5.24626
-5.06947
5.06947
4.71215
-4.71215
-5.1361
5.1361
-2.06694
2.06694
-5.82796
5.82796
3.16666
-3.16666
-5.37547
5.37547
-0.613184
0.613184
-0.543971
4.29492
3.20698
3.20698
-2.76042
2.76042
-4.86646
4.86646
6.21737
-6.21737
9.66796
-9.66796
-3.29063
-3.3311
1.32723
-8.06779
-4.93444
-4.93444
-8.4401
8.4401
-2.81367
2.81276
3.08829
-3.08829
-1.12214
1.12214
-4.63042
-0.254653
-4.63042
5.28071
-0.39563
5.28071
-1.75719
0.180906
-1.75719
4.11868
-4.11868
1.41218
0.164101
1.41218
3.04569
-3.04569
-1.87928
3.75921
1.87167
-1.86876
6.16368
-1.88219
3.75321
-4.8014
4.8014
-5.43801
0.169365
-5.43801
5.21509
0.0535515
5.21509
-5.32629
5.32629
-5.3064
-0.0313242
-5.3064
5.35751
-0.0197893
5.35751
3.15912
-3.15912
-3.00942
0.0510489
-3.00942
2.90171
0.0566605
2.90171
0.353162
5.27327
-5.97959
8.79235
-5.27327
0.0270116
5.20686
0.039398
5.20686
-5.10614
0.0366651
-5.10614
5.01228
0.0571954
5.01228
4.84812
-0.135977
4.84812
-4.79831
0.0861583
-4.79831
-3.27249
-3.34559
-5.21343
0.0773335
-5.21343
-2.08254
0.015596
-2.08254
2.06659
0.00035342
2.06659
-3.83349
3.83349
-5.93639
0.108438
-5.93639
3.10837
0.0582877
3.10837
1.86997
1.88098
5.62093
-5.62092
2.45427
-5.36982
-0.00564359
-5.36982
-5.402
-4.26596
5.402
-0.0265376
-0.944732
0.331548
-0.944732
3.14278
0.0642039
3.14278
2.85724
0.0444674
-2.85724
0.0968243
3.56099
-3.56099
2.10375
0.656671
2.10375
-5.56676
5.56676
4.95515
0.0571298
-4.95515
0.0886904
6.15669
0.0606832
6.15669
-6.19934
-0.0180268
-6.19934
3.34558
-6.67668
-3.29072
5.04127
0.0948276
-5.04127
0.106833
3.1038
-0.0155112
3.1038
-3.04951
3.04951
-3.07167
-0.0166165
-3.07167
-1.81058
0.688444
-1.81058
0.691534
0.430602
0.691534
-4.44567
-0.18475
-4.44567
-5.67102
-0.265371
5.67102
-0.390319
1.95238
-1.95238
-1.88952
0.132338
-1.88952
-4.24796
-0.19771
4.24796
-0.129278
-4.04817
-0.0705105
-4.04817
-3.06396
-0.00771741
3.06396
-0.0182709
3.07903
0.0637442
-3.07903
0.0333472
-1.87061
3.75159
-1.88034
3.75202
-4.59374
-0.207659
-4.59374
5.02769
-0.22629
5.02769
5.65162
0.176341
-5.65162
0.213606
5.24829
-0.0331976
5.24829
-5.28206
-0.0442319
-5.28206
5.34093
-0.01464
5.34093
5.28403
-0.0357429
-5.28403
-0.022362
5.35761
-0.000105082
5.35761
3.19445
-0.0353268
3.19445
-3.13297
-0.026147
-3.13297
3.02806
-3.02806
3.01731
0.0107435
-3.01731
0.0078954
-11.1336
11.1156
-0.0340691
-11.0995
5.17279
5.17279
4.28284
0.565285
4.28284
-5.00929
0.21098
-5.00929
3.28995
-6.58067
3.28462
-6.55712
3.3681
-11.4359
3.31499
-6.66058
5.29102
-5.29102
5.26555
0.0254649
-5.26555
0.0521192
-2.09091
0.0083782
-2.09091
-3.6048
-0.228692
-3.6048
4.10589
-0.2724
4.10589
-3.0251
3.0251
-3.04649
0.0213879
3.04649
0.0618823
5.35963
-0.00201112
-5.35963
-0.0101973
1.20123
0.210949
-1.20123
0.256498
3.7383
-0.177319
3.7383
-3.36675
-0.194233
-3.36675
-2.06962
-0.021292
2.06962
0.0341242
-5.816
0.249246
-5.816
-11.1925
0.0929863
-11.1531
-6.10636
-6.10636
2.33374
11.1261
-3.12385
-0.00912185
3.12385
-0.0200486
3.0327
-0.00760236
-3.0327
-0.016809
-3.04541
0.0173498
3.04541
0.00410256
-2.44039
0.629813
-2.44039
-0.919761
0.919761
-0.635254
-0.284507
0.635254
0.0562802
2.43329
-0.480908
2.43329
1.99133
0.0752596
-1.99133
0.101802
-3.93802
-0.110156
-3.93802
5.19725
-0.169567
5.19725
-3.2594
-0.10735
3.2594
-0.0649557
-0.0325238
11.1481
-5.14027
0.0341296
5.14027
-11.2088
11.2429
-3.25832
0.817931
3.25832
1.02451
5.28854
0.278215
-5.28854
0.279256
5.32175
0.019186
-5.32175
0.0307306
-3.40064
-0.204152
-3.40064
-4.3624
-0.231338
4.3624
-0.256509
-11.4736
-0.203807
11.6774
-11.4164
6.01981
0.136878
-6.01981
11.3798
-1.46189
-0.490494
1.46189
-0.542129
2.82449
-0.391195
2.82449
3.88303
-0.144729
-3.88303
-0.0549852
-5.24967
-0.0323936
5.24967
-0.0524161
-3.17909
-0.221557
3.17909
-0.354601
-4.24825
4.31245
1.91543
-3.33636
-3.34032
-7.60232
1.83175
1.91984
4.28602
-7.05212
-4.38378
-6.94528
7.2498
-6.97055
-9.32921
9.19323
7.37148
-7.44199
-5.75525
5.81713
6.3555
-6.37377
1.879
1.88021
10.6571
-10.4878
-10.3293
10.1216
10.232
-10.2634
10.6629
-10.7071
-12.2654
12.2846
-5.69402
5.74507
-6.61033
6.58419
-6.73004
6.66508
-3.32663
-3.23048
9.00125
-8.92392
11.7144
-11.72
-11.0499
11.1584
3.32709
0.985365
3.39083
-1.88816
3.76716
-1.86505
3.78049
3.25658
-6.58321
3.3241
-6.66442
6.02787
5.68653
-6.00133
-1.60098
-5.85682
5.84131
-5.81485
5.81896
8.2443
-8.49896
-1.88825
3.76846
-1.86377
3.78361
-3.40186
-2.35339
3.34357
0.94245
5.563
3.43826
-5.65783
-1.28746
-7.50792
7.36319
-7.84063
7.6464
-0.427992
5.80817
-5.38017
4.43846
-1.54433
7.3525
5.70547
5.91645
5.86449
-5.58628
1.10606
-6.48623
-6.39754
-2.65815
2.79049
2.64402
-2.47992
5.67223
1.69925
5.54295
-5.39179
-2.0502
-5.50194
3.82708
1.99006
3.84846
4.04701
2.30849
4.03929
3.04779
-3.02945
-0.0183389
-3.11168
6.15947
0.739012
-5.46507
-4.52262
6.8838
3.77332
6.93735
-7.2305
-3.25726
-7.01689
-6.21263
-4.11666
-6.44396
6.62029
3.50134
6.394
-7.84789
7.79547
6.78869
3.44336
6.7689
-6.8261
-3.43728
-6.84846
10.3664
-2.68545
-7.68096
-6.88831
-5.37712
6.90295
3.75991
7.45526
4.82936
7.48599
3.54926
6.81715
-7.30917
1.93205
-3.8229
-1.87112
-3.81501
3.70122
2.04385
3.75788
-4.15824
-2.45209
-4.16736
-4.19792
-2.53212
4.23325
2.35094
-4.2754
-3.56524
4.38275
2.28233
3.02424
-7.40802
3.63634
-6.86682
-6.25354
-2.67038
-6.20142
3.98501
2.72563
-6.71064
-2.5982
10.8636
-5.17708
9.26263
-7.29504
-4.42501
-7.30524
-8.06226
-2.98767
-8.32763
-5.75841
5.55425
-5.8563
5.5839
10.6722
-5.42838
-5.24382
-3.86231
-2.51146
3.82897
-0.438131
-3.80923
3.7909
-0.0420734
3.73841
4.72378
4.28565
-3.85515
-1.95971
-3.87195
3.82394
1.99502
3.84129
7.12435
1.11996
6.72872
-5.97898
-2.51998
-6.16373
9.16726
-8.47881
2.94513
-2.96643
5.07899
2.56741
-4.90167
-2.60625
5.93125
-2.88796
-3.04329
-12.1853
10.4974
1.68787
-4.83279
-0.39433
0.218854
-5.49579
-3.83342
5.40963
0.506821
11.0042
7.17083
-5.51136
5.7606
6.16609
6.22322
-0.174327
6.02981
-5.21188
5.40165
-2.56637
-2.83528
4.93283
-5.13054
-1.2309
-5.00695
3.77605
0.412415
1.87267
-1.54112
-2.16299
-0.495163
-2.06119
1.59236
1.05166
1.80331
1.00116
1.78933
-2.87202
0.509689
2.36233
-1.87085
-1.97023
-3.4574
-1.16059
4.61799
5.39424
1.96895
-5.33926
-0.162684
2.82609
-2.82574
-0.727924
-2.72948
2.01826
-2.74618
-3.40779
-1.83708
5.24488
-3.34572
-0.52623
3.35333
0.495138
-3.76684
-2.08998
3.78346
0.255838
-3.05661
6.1148
-3.05819
-5.01632
2.57329
3.58617
4.56335
-4.84869
2.46923
2.37945
-1.26251
5.99304
0.944312
5.95984
-9.19629
5.93903
7.59729
3.56108
-7.77363
0.756739
-8.43955
9.59911
-8.27536
-1.32375
4.98543
4.61368
5.18663
5.48557
-3.90809
9.09472
-0.936309
-7.33905
9.37586
-5.81478
5.44216
-11.2569
-10.9277
3.58868
-6.90903
8.50259
-1.59355
-2.40526
-5.44263
9.31429
-0.781802
-8.53249
5.6122
-5.30112
-5.28689
10.588
-7.98656
8.72417
-2.62207
-6.10211
-6.64806
-4.05904
6.68045
1.11502
-9.83643
11.7685
-3.01928
5.88803
0.880871
5.88792
3.88597
-6.00836
2.12239
4.10059
-6.72266
2.55853
-8.5669
-4.76927
9.39841
-4.62915
-7.43965
-6.61414
-0.825513
2.02302
9.74546
-6.85238
5.3041
1.54828
3.3253
0.515989
-3.33604
-0.478966
0.329406
4.40273
-4.73214
4.08729
4.13175
3.26997
1.13277
3.81608
2.02523
-3.79603
-0.371335
-3.99241
1.46029
-1.64147
-3.37751
4.83781
-3.83824
0.460722
-2.61707
-3.4641
6.08117
-4.48819
3.04753
3.06727
5.04255
-4.74406
1.27996
-2.33571
-2.40835
2.55827
-4.19974
1.83335
3.00445
4.11569
0.550449
4.71235
4.68606
-7.43798
0.57116
8.12431
-6.83686
1.63598
5.85
-6.94008
0.325948
-5.87547
1.16604
-6.34312
-5.5446
5.6703
-8.65797
-5.58664
7.16905
-0.44033
-6.77873
-1.5489
-3.97046
-1.78795
-4.19202
-1.78724
-4.06905
-5.69534
-1.25651
-4.43883
4.29774
-4.37152
-2.07245
4.62803
0.955871
-5.28194
4.79144
-4.92279
4.53159
0.0845443
3.70635
4.37019
1.85874
-2.44384
4.30257
-5.12284
6.2428
-6.518
1.39516
3.28019
-5.80017
-3.23781
4.69428
4.47297
5.12488
7.46208
-12.6263
5.16419
-9.69504
9.20597
0.489068
-14.0952
4.40012
-6.63308
2.73258
0.212551
2.74096
0.678875
2.33496
-3.01383
-2.28755
-2.25343
-2.17417
-3.21749
5.39166
1.01536
-3.19394
2.17858
-3.29862
4.31399
-0.0631818
-3.13076
5.20293
-2.86797
5.41548
-3.36181
2.05368
3.06328
5.30493
-2.24166
4.18409
-1.61669
1.63964
-3.8813
-1.57785
-2.9594
5.00325
-3.12178
3.5825
-0.271109
3.85361
-3.8666
0.978641
-0.596631
3.53512
3.63195
4.14945
-3.01668
2.77514
-4.39183
-1.10616
-3.84138
-0.836925
-3.30616
-3.55663
6.8628
5.61568
-8.92185
-6.17355
10.0981
-3.92455
7.99274
-5.79397
-2.19876
-4.34458
-4.13423
3.71477
2.31505
10.3078
0.0718424
-5.86581
-5.14004
-4.11552
2.80537
2.59628
-1.91905
3.60692
1.7002
0.172477
0.631531
1.17178
1.88582
-1.25429
0.112844
1.77298
-1.42828
2.10131
0.724785
-2.17657
0.115377
-1.3698
3.38806
0.992527
-2.04419
0.789892
0.921793
-3.48816
4.82678
-2.5674
-2.25938
5.74857
0.916613
-3.48401
4.09033
-3.67792
2.0484
-3.20899
-1.4356
-5.11352
-3.41427
-2.32213
4.5007
-3.06954
5.03848
1.09291
-4.8758
5.96871
-3.32579
1.4887
-2.9727
3.69748
-0.988201
-1.9845
2.62553
2.61935
-2.81489
0.0854091
-0.189363
2.16095
-2.35031
-0.585233
-2.45609
-4.56159
4.81742
-2.04947
4.51871
2.2531
-1.89539
6.41409
1.82432
-3.71971
-3.192
-3.71823
-1.34025
3.22309
-0.97288
-5.87558
-7.07498
5.91132
0.048522
-9.12548
10.2463
-1.1208
-5.35216
-0.586871
5.5723
-7.47894
0.756276
-4.9204
5.32587
6.27019
6.31871
-8.39243
-0.140061
-4.89109
1.23533
-6.12642
5.84901
-2.97242
6.5611
-7.07818
5.00573
-6.12231
5.23735
-0.889072
5.56953
-3.44714
2.11142
-6.17047
-5.05544
6.9687
-3.52533
7.84957
-4.0434
11.893
-7.06268
6.90587
4.9871
-1.37318
-5.93206
-6.85972
5.48654
0.0461518
5.93407
4.83717
-2.81194
4.46584
2.186
-4.5217
-2.01375
-6.33868
1.81698
-3.27141
-1.84793
3.66491
3.19462
3.7106
1.25656
-3.23164
6.54913
-7.37464
-1.91998
-3.62461
6.76339
-1.27684
4.00474
-7.62935
-2.33838
5.82269
-1.50821
-4.31448
-0.394311
-5.19233
3.36697
-8.55929
5.291
-6.83991
1.78688
-8.41996
-3.49505
-4.03718
-1.72968
-3.1931
-5.51755
3.78787
-1.11743
3.67401
-6.81064
5.30243
-2.39533
6.1832
-3.47595
-0.71607
3.83055
0.701045
6.88424
0.446806
-3.68462
-2.8452
4.12287
-1.27767
-0.0398327
-3.10983
1.01305
2.32043
3.42814
-6.09648
0.296314
-3.3883
-3.21314
7.68611
6.88496
12.5006
-0.125629
9.11428
-1.42817
8.98865
3.69672
3.753
-2.351
7.51519
4.51179
5.90695
-0.841413
2.89509
1.89955
1.91514
0.910593
2.21839
1.41356
3.19703
0.183196
-2.07023
4.85422
-8.96974
-1.0116
-8.40445
0.788777
5.75862
-4.96984
3.46859
-0.872309
2.19092
-0.0599324
-2.09865
2.15858
-2.89521
-1.92617
-0.153189
-1.54237
2.33226
1.84569
-2.17907
-0.716141
0.329056
-3.74333
2.87994
-2.79453
-0.175177
5.79353
-2.58387
0.233553
-1.09516
-2.22253
-2.7177
2.60232
6.12532
0.288774
3.06713
5.1062
3.01622
0.204278
4.44571
-6.03926
-4.12119
-6.17932
-0.330316
5.24199
2.02452
7.72094
7.01162
5.73477
-1.89458
-9.26922
6.94002
0.575173
7.42909
-3.11461
-5.44469
5.61762
0.625177
-5.17729
-1.66262
-7.1073
-6.53213
-0.491478
5.7939
-6.39276
5.67669
3.88875
0.550081
-3.33054
-0.706643
3.61505
0.137948
9.1266
-0.999886
-7.09417
8.09406
-4.75873
3.74713
0.705
2.90192
2.86358
1.99127
-5.1029
-10.0727
-1.9413
-1.54686
-4.20068
0.417309
-2.263
6.5762
-2.82907
4.37744
5.26499
7.45591
-3.1887
-5.73315
7.11325
-2.73581
4.7201
)
;

boundaryField
{
    wall-4
    {
        type            calculated;
        value           uniform 0;
    }
    velocity-inlet-5
    {
        type            calculated;
        value           uniform -3.75095;
    }
    velocity-inlet-6
    {
        type            calculated;
        value           uniform -5.62643;
    }
    pressure-outlet-7
    {
        type            calculated;
        value           nonuniform List<scalar> 8(6.37734 6.26167 6.62173 6.74057 6.61808 6.6363 6.57457 6.68309);
    }
    wall-8
    {
        type            calculated;
        value           uniform 0;
    }
    frontAndBackPlanes
    {
        type            empty;
        value           nonuniform List<scalar> 0();
    }
}


// ************************************************************************* //
