/*--------------------------------*- C++ -*----------------------------------*\
  =========                 |
  \\      /  F ield         | OpenFOAM: The Open Source CFD Toolbox
   \\    /   O peration     | Website:  https://openfoam.org
    \\  /    A nd           | Version:  9
     \\/     M anipulation  |
\*---------------------------------------------------------------------------*/
FoamFile
{
    format      ascii;
    class       volVectorField;
    location    "7";
    object      U;
}
// * * * * * * * * * * * * * * * * * * * * * * * * * * * * * * * * * * * * * //

dimensions      [0 1 -1 0 0 0 0];

internalField   nonuniform List<vector> 
918
(
(0.985705 -0.00285394 0)
(0.00508577 2.9662 0)
(0.00268199 1.69985 0)
(0.977012 0.00540457 0)
(-0.00464763 1.6693 -3.30208e-21)
(-0.00712863 2.94885 -2.06374e-18)
(0.919941 1.26306 6.1771e-19)
(0.527179 0.2792 -9.87657e-21)
(1.00009 -0.0010825 0)
(0.046781 1.57236 0)
(-0.00569205 1.60464 0)
(0.886161 0.00792655 0)
(0.0113936 2.93024 0)
(0.000354809 2.79599 0)
(-0.0151352 3.18198 9.83733e-19)
(0.00279204 1.61954 -2.43863e-20)
(0.660241 0.125451 5.89667e-19)
(0.234209 1.83499 5.29327e-19)
(0.967421 0.0198326 0)
(0.000825749 1.61801 0)
(0.188059 0.302257 -5.44568e-19)
(1.00105 -0.00389452 0)
(1.00087 -0.00769846 0)
(0.975341 -0.00537254 0)
(0.829503 -0.0222823 0)
(0.00222462 2.64702 0)
(-0.0152157 2.91013 7.31068e-19)
(-0.00861204 1.7111 0)
(0.00104853 1.76556 0)
(-0.00172738 1.72623 0)
(-0.00328926 1.797 0)
(-0.00557303 1.68503 2.61731e-21)
(-0.00528474 1.62659 0)
(-0.0204039 2.98774 -7.30013e-23)
(-0.0165846 3.00516 1.60159e-18)
(0.0020464 2.99993 0)
(0.929732 0.00708954 0)
(0.18396 0.603281 -1.43062e-19)
(0.856272 1.32031 -7.45372e-19)
(1.01524 1.07407 8.13951e-19)
(0.736227 1.52133 -1.39346e-19)
(0.809548 1.48658 8.24211e-19)
(0.577262 0.341194 9.63696e-21)
(0.577884 0.250385 0)
(1.20154 0.572919 0)
(0.531347 0.342373 4.55496e-20)
(0.505397 0.273498 -4.72601e-20)
(0.92071 0.00304752 0)
(1.00104 6.22291e-05 0)
(1.00001 0.000631792 0)
(0.998896 -0.00617664 0)
(1.00073 -0.00235967 0)
(1.00048 -0.000704426 0)
(0.0282378 1.55395 -5.48828e-19)
(0.0416965 1.69586 0)
(0.093946 1.60992 0)
(0.00392218 1.6677 0)
(0.00908998 1.54197 0)
(-0.000955478 1.62608 0)
(-0.0129121 1.67349 0)
(-0.0109478 1.59153 0)
(-0.00680031 1.69107 0)
(0.00125003 1.60696 0)
(0.950653 0.00705891 0)
(0.940694 0.00932702 0)
(0.903999 0.00248064 0)
(0.927482 0.0181553 0)
(0.869168 0.0152719 0)
(0.0145479 3.00054 7.58027e-19)
(0.0112742 3.00947 0)
(0.0059088 3.00227 0)
(0.013573 2.9979 8.51143e-24)
(0.00767025 2.95842 -1.12781e-18)
(0.0148401 2.98146 0)
(0.011157 2.9026 0)
(0.0251245 2.92989 1.59964e-24)
(0.00427762 2.8251 0)
(0.0310324 2.91539 0)
(-0.00967489 2.74735 0)
(0.336223 3.60862 0)
(-0.128116 3.69829 0)
(0.156438 3.2745 -9.15564e-19)
(-0.0054426 2.99145 0)
(-0.00760428 1.76425 0)
(-0.000356295 1.69383 2.406e-20)
(-0.00217202 1.63125 -2.88507e-20)
(0.704844 0.167658 -2.02764e-19)
(0.676535 0.0909724 -1.96491e-19)
(0.699634 0.195877 -6.10585e-19)
(0.657012 0.158248 -4.12413e-19)
(0.230632 1.31979 0)
(0.311346 1.91355 -6.17509e-19)
(0.475343 1.85119 1.00056e-18)
(0.982725 0.013954 0)
(0.937001 0.0194882 0)
(1.00069 0.000224155 0)
(1.00161 0.00897213 0)
(0.997984 0.0191709 -1.13344e-18)
(0.988729 0.0156873 8.63633e-19)
(-0.00307361 1.68565 0)
(0.000283631 1.62085 0)
(-0.00312175 1.73275 0)
(-0.00508532 1.6962 0)
(-0.00165076 1.62696 0)
(0.311545 0.334339 1.74615e-19)
(0.337169 0.297539 0)
(0.993298 -0.00828607 0)
(0.954355 -0.00318096 0)
(0.90157 0.0106913 0)
(0.886062 0.00426971 0)
(0.859116 -0.014586 0)
(1.0658 0.00246267 0)
(0.847844 0.0352608 0)
(0.762455 0.020024 7.85635e-19)
(-0.0367844 2.86366 4.5147e-19)
(0.0438885 2.90699 0)
(0.0578081 2.88217 0)
(-0.0116235 2.7033 0)
(-0.0130409 2.9847 6.80328e-19)
(-0.0186691 2.89564 0)
(-0.0156464 2.98781 -2.13504e-18)
(-0.013083 2.92469 7.363e-19)
(0.00160507 1.78229 0)
(0.00391034 1.76939 0)
(0.00435591 1.69661 -6.07805e-22)
(0.00135139 1.69244 0)
(0.00662861 1.62036 0)
(0.970694 0.00637356 0)
(0.934781 0.00755854 0)
(0.917511 -0.00959137 0)
(0.969872 0.00503046 0)
(0.925129 -0.00651461 0)
(0.263997 0.896504 1.75361e-19)
(0.364909 1.04335 0)
(0.238266 0.50899 -2.36318e-20)
(0.141801 0.161852 0)
(0.969893 1.13553 -2.33455e-19)
(1.08012 0.902136 5.06981e-19)
(0.445216 1.85563 0)
(0.605984 1.71723 0)
(0.68002 1.69988 0)
(0.410052 0.631947 -3.03336e-19)
(0.626804 0.30033 0)
(0.610362 0.219339 1.19464e-19)
(1.0498 0.963699 0)
(1.12354 0.794608 0)
(1.14388 0.733401 -4.57547e-19)
(1.19071 0.632112 0)
(1.24632 0.420023 6.66479e-20)
(0.966225 -0.00335545 0)
(0.957896 0.0027257 0)
(0.923293 -0.000115226 0)
(0.976058 -0.00176405 0)
(0.957745 0.00174126 0)
(0.928172 0.00397846 0)
(0.999598 0.001575 0)
(1.00062 0.00230736 0)
(0.999733 0.00117498 0)
(0.0162034 1.59321 2.94389e-19)
(0.0392353 1.51838 0)
(0.015848 1.63605 4.95697e-19)
(0.0214638 1.59773 -4.29603e-19)
(0.156023 1.84035 -4.38074e-19)
(0.0430945 1.74476 0)
(0.167837 1.72524 0)
(-0.012547 1.66645 0)
(-0.00178275 1.56222 0)
(-0.000790179 1.68519 -1.34325e-21)
(0.00192055 1.61928 0)
(-0.000631017 1.6953 -6.93287e-20)
(6.25986e-05 1.62821 1.32072e-19)
(-0.00953115 1.67852 0)
(-0.0123322 1.67123 0)
(0.00019691 1.57957 0)
(0.00160617 1.69244 0)
(0.00835486 1.60643 0)
(1.00461 0.00713268 0)
(0.961256 -0.00263592 0)
(0.985829 0.00925637 0)
(0.942889 0.00766531 0)
(0.907137 0.00247631 0)
(0.955473 0.00605721 0)
(0.952447 -0.00212911 0)
(0.905219 -0.00535559 0)
(0.00555175 3.06455 -6.83205e-21)
(0.0152868 3.05769 0)
(0.0145465 2.96837 0)
(0.00806029 2.87596 0)
(0.956522 4.05328 0)
(1.26721 3.37597 1.01579e-18)
(0.0743168 3.08418 0)
(-0.0227961 2.91218 0)
(0.00458506 1.75239 0)
(-0.0023456 1.74736 0)
(-0.00082437 1.75271 0)
(-0.0085628 1.79001 6.31916e-21)
(-0.0086696 1.777 0)
(-0.00614948 1.78166 0)
(0.00325505 1.61763 2.75738e-21)
(0.00280109 1.69109 4.31893e-20)
(-0.00476073 1.69593 2.95406e-20)
(0.00486536 1.62282 0)
(0.737136 0.126695 2.98685e-19)
(0.692694 0.0471089 -2.89511e-19)
(0.195876 1.40702 0)
(0.299552 1.25249 -2.37322e-19)
(0.135908 1.44394 -6.94621e-19)
(0.15789 1.37697 6.9304e-19)
(0.904387 0.00152962 0)
(0.958507 0.00667238 0)
(0.969585 0.0158244 0)
(0.909897 0.0100031 0)
(0.00250448 1.68942 0)
(-0.00218499 1.68827 0)
(-0.000393117 1.6118 0)
(0.481938 0.358773 4.26766e-19)
(0.425444 0.355087 -5.34542e-19)
(0.446218 0.274429 0)
(1.18144 0.0810437 -1.86432e-21)
(1.16693 0.0365019 0)
(1.0935 0.0396153 0)
(1.01214 0.00856224 0)
(0.751683 0.0882452 0)
(0.780357 0.0816363 -1.26322e-18)
(0.711909 0.0372163 4.81392e-19)
(0.0102136 2.98079 5.20457e-19)
(-0.0322689 2.86732 4.62365e-20)
(0.00359384 3.05045 -1.46633e-20)
(0.0211891 3.04298 5.24611e-19)
(-0.0147933 2.99669 2.43554e-20)
(-0.0131601 2.94966 -9.7727e-23)
(-0.0173553 3.01122 -4.55618e-19)
(0.0152238 3.02058 3.32279e-19)
(0.0080162 3.03778 -5.24051e-19)
(0.988143 0.00720385 0)
(0.982527 0.00605721 0)
(0.939091 0.00354322 0)
(0.958362 -5.59138e-05 0)
(0.959818 -0.00978884 0)
(0.908922 -0.012883 0)
(0.959776 0.00605139 0)
(0.95974 -0.00227603 0)
(0.912925 -0.00379831 0)
(0.560286 1.33731 3.74697e-19)
(0.661977 1.49248 0)
(0.168983 0.118343 2.17962e-20)
(0.424032 0.511642 -5.53855e-20)
(0.344911 0.455902 1.48823e-19)
(0.0880891 0.0458672 -3.66004e-19)
(0.434876 0.991635 1.52281e-18)
(0.451472 0.869233 3.43639e-19)
(0.677938 0.24564 4.46086e-19)
(0.651816 0.274767 1.08244e-19)
(0.632428 0.199511 2.26223e-19)
(1.22987 0.469458 2.74819e-19)
(1.24916 0.256328 2.95314e-19)
(0.00850734 1.67526 1.99749e-19)
(0.00612916 1.63136 0)
(1.04134 0.0240534 0)
(1.00772 0.0123985 0)
(0.985758 0.00682868 0)
(0.0101371 3.07568 0)
(0.020351 2.9444 9.22379e-19)
(0.016427 2.95653 0)
(0.00591124 2.85057 -9.14611e-19)
(0.00535918 3.09328 2.21065e-19)
(0.00782906 3.08098 0)
(0.723828 1.83368 -2.19858e-19)
(1.26345 2.5669 5.90334e-19)
(0.728992 1.99632 -1.45362e-18)
(0.020515 2.9813 -4.17724e-19)
(0.0377835 3.00455 0)
(-0.036171 2.8793 0)
(-0.00373863 1.68576 -8.35098e-21)
(-0.00328655 1.69026 -9.538e-20)
(-0.00373682 1.62456 -5.42089e-21)
(0.250764 1.35134 7.59182e-19)
(0.346236 1.21626 -5.21797e-19)
(0.0288282 1.55901 4.73179e-19)
(0.0796509 1.51586 -5.76879e-19)
(0.0857424 1.45367 6.53291e-20)
(0.00191575 3.118 -1.33416e-18)
(0.0155397 3.11769 1.42696e-18)
(-0.00872388 2.98035 6.04827e-19)
(-0.00272618 2.97712 -5.51459e-19)
(-0.0218083 2.88225 -6.15997e-19)
(0.00900776 3.09736 -1.63253e-18)
(0.00104549 3.10607 1.58853e-18)
(0.488485 0.858114 0)
(0.522858 0.671411 -6.74014e-19)
(0.326695 0.364923 3.25534e-19)
(0.421472 1.1202 1.00163e-18)
(0.443989 1.01944 -1.54264e-18)
(1.25647 0.170685 -4.71716e-20)
(1.25427 0.30774 0)
(1.24466 0.121367 1.1536e-19)
(-0.00795517 1.68919 -1.71498e-21)
(-0.009349 1.69186 0)
(-0.00721817 1.62293 0)
(0.306939 1.31629 -2.71676e-19)
(0.37382 1.23306 -6.37411e-19)
(0.407375 1.1533 1.15804e-18)
(1.00499 -0.0265542 0)
(1.005 -0.00993322 2.11709e-19)
(-0.00107348 1.78049 0)
(-0.00919999 1.78701 0)
(1.00241 0.00439414 2.24987e-21)
(0.997985 0.0128428 4.21342e-19)
(-0.00307317 1.78861 -8.24305e-21)
(-0.00380308 1.78912 0)
(0.0431109 3.18407 2.32013e-19)
(0.431008 3.51042 0)
(1.11509 0.633548 5.51619e-20)
(1.01167 0.0156273 -1.65347e-21)
(1.0032 0.00936358 0)
(1.00326 -0.00202949 4.45636e-22)
(0.0583323 1.8356 0)
(0.0587591 1.72124 0)
(0.000454651 1.7973 0)
(0.015026 1.77967 9.22239e-20)
(-0.00273846 1.77637 4.80912e-20)
(0.992999 0.0227703 2.07736e-21)
(1.04216 0.00327666 0)
(1.06797 0.0278372 0)
(0.00587845 1.74926 0)
(0.0031019 1.77893 0)
(0.00101612 1.78764 0)
(0.200885 1.90679 -2.37258e-19)
(1.00496 -0.0290345 0)
(0.996721 -0.0305126 0)
(1.00858 0.0010942 2.63906e-19)
(1.00267 -0.008695 -3.16862e-19)
(1.00247 -0.00205299 0)
(0.00894912 1.7478 0)
(0.00112303 1.77587 0)
(0.00756009 1.75496 0)
(-0.00132186 1.78909 0)
(-0.00779761 1.78456 0)
(-0.00840701 1.78774 0)
(1.01933 -0.000625626 0)
(1.01479 0.00737777 -6.15763e-22)
(0.653223 1.21168 3.72372e-19)
(1.00314 0.00152202 -2.61297e-19)
(1.00438 0.0103203 3.19604e-19)
(1.00072 0.00223963 0)
(1.01181 0.0145972 2.57139e-19)
(1.00437 0.010138 -3.20042e-19)
(0.99186 0.0148976 0)
(0.000955358 1.786 0)
(-0.00113566 1.79021 2.11254e-20)
(-0.00613851 1.7856 -1.57891e-20)
(1.15551 0.247557 -9.89923e-21)
(1.1 0.0850434 0)
(0.0348 3.07714 -6.55074e-19)
(0.0658977 2.84742 -4.98493e-20)
(0.146458 3.18196 1.07354e-18)
(0.14677 3.20933 -7.93672e-20)
(0.135074 3.23857 0)
(0.0195588 3.13821 1.56722e-19)
(0.0775545 3.15524 6.4117e-19)
(0.068541 3.18146 -2.98666e-19)
(0.0194568 3.13161 0)
(0.69542 0.353325 0)
(0.622428 0.391509 0)
(1.0447 0.640351 -2.11804e-19)
(1.05004 0.788309 3.35966e-19)
(1.11634 0.542119 0)
(1.16015 0.52744 0)
(1.01277 0.00925033 -4.90253e-19)
(1.01644 0.00355421 6.07861e-19)
(1.01019 0.00910088 0)
(1.01153 0.0089626 0)
(1.01045 0.00273557 0)
(1.01799 0.00964351 0)
(1.00719 -0.00289135 0)
(1.02224 0.0136875 0)
(1.01763 0.0147064 0)
(1.01605 0.00507937 0)
(0.0511492 1.82869 0)
(0.0231748 1.82506 0)
(0.0843389 1.86815 0)
(0.059443 1.87483 0)
(0.0512018 1.71029 0)
(0.0457102 1.69746 -3.147e-19)
(0.0624503 1.7368 0)
(0.0626005 1.7356 1.63943e-19)
(0.0058963 1.75716 -1.77326e-19)
(-0.000336579 1.79685 0)
(-0.00232413 1.79535 0)
(0.000532425 1.80217 0)
(7.69684e-05 1.81261 0)
(0.00489061 1.77317 -5.44088e-20)
(-0.00324092 1.77895 6.46875e-20)
(0.00737929 1.78566 8.5624e-20)
(0.00214762 1.78343 0)
(-0.0025058 1.77869 -1.11808e-19)
(0.000875596 1.77559 -6.87874e-20)
(0.00373163 1.7691 4.25085e-20)
(-0.00800986 1.77073 -8.82884e-20)
(0.00228341 1.77862 -1.02514e-19)
(1.00326 0.0168992 4.63828e-19)
(1.00768 0.00738333 -5.72616e-19)
(1.00103 0.019921 -4.93401e-19)
(0.982356 0.0120602 6.1502e-19)
(1.04049 0.00769006 0)
(1.0443 -0.00292448 0)
(1.05723 0.0267579 0)
(1.04227 0.00112143 0)
(1.06048 0.0129835 0)
(1.08508 0.0699241 0)
(1.06748 0.0420615 0)
(1.09041 0.0339976 0)
(0.000873971 1.78569 -2.34022e-21)
(0.0148559 1.75556 0)
(-0.000466455 1.77472 0)
(0.00515697 1.78062 1.94304e-20)
(0.00934819 1.77954 -8.95433e-22)
(0.013493 1.75312 2.40301e-20)
(0.00575666 1.75562 -2.43902e-20)
(-0.00170518 1.78199 0)
(-0.000843879 1.78063 0)
(-0.00194323 1.77703 0)
(-0.0012596 1.78864 0)
(-0.0031909 1.78726 0)
(0.3014 1.87872 3.85141e-19)
(0.311391 1.85762 1.92177e-19)
(0.305393 1.6027 -1.87616e-19)
(0.161893 1.63393 4.67448e-19)
(0.228549 1.72609 1.21982e-19)
(1.00217 0.00296854 0)
(0.996897 -0.0235542 0)
(0.987735 -0.0204095 0)
(1.02618 -0.011674 0)
(1.01576 -0.0182374 0)
(1.00972 -0.0206954 0)
(1.00496 -0.0217668 0)
(1.00798 -0.010422 0)
(1.01644 0.00341831 4.59565e-19)
(1.01988 0.00139666 -5.73153e-19)
(1.0143 0.00824871 -4.44599e-19)
(1.0134 0.00378275 5.63629e-19)
(0.654913 1.33504 0)
(0.545887 1.47731 3.84736e-19)
(0.77553 1.13822 2.70869e-19)
(0.833625 1.11049 -3.62717e-19)
(0.919902 2.69057 -9.89219e-19)
(0.8359 0.113518 3.01214e-19)
(1.10505 0.088964 0)
(1.13993 0.163167 1.13841e-20)
(1.1412 0.145994 1.37278e-21)
(0.970746 0.102857 0)
(0.116103 2.95172 3.39239e-19)
(0.108929 2.85901 -8.78575e-19)
(-0.000954872 2.40143 6.04695e-19)
(0.105476 0.18481 -2.46052e-19)
(0.376023 3.43417 -3.49019e-19)
(0.211258 3.30877 0)
(0.256743 3.36326 4.54477e-19)
(0.26183 3.00934 -1.25634e-18)
(0.353132 3.17486 0)
(0.00530897 3.12103 3.30457e-20)
(0.0157746 3.12904 -4.0505e-19)
(0.0128247 3.12526 5.96155e-19)
(0.0353683 3.13852 0)
(0.0336354 3.14926 0)
(1.12258 2.69395 0)
(0.623722 0.797104 -2.48686e-19)
(0.947089 0.939296 -1.74714e-19)
(0.898989 0.976604 0)
(0.757145 0.922523 6.93046e-20)
(1.00417 0.82145 2.131e-20)
(0.379616 0.479084 -6.97757e-19)
(0.719837 0.340108 -2.41258e-20)
(0.736587 0.308236 2.31722e-19)
(0.621596 0.432268 1.99965e-20)
(0.55858 0.425355 -8.30511e-19)
(0.692148 0.372403 0)
(0.692236 0.427655 3.86511e-19)
(0.684938 0.41131 0)
(0.642009 0.417171 0)
(0.661544 0.376967 0)
(0.772362 0.552166 1.21633e-19)
(1.15802 0.261768 3.58617e-21)
(1.14968 0.384753 0)
(1.18686 0.353061 0)
(0.800085 0.215259 3.52128e-19)
(0.789628 0.520033 -1.94822e-19)
(0.701744 0.476262 3.12727e-19)
(0.880414 0.405206 -2.96374e-19)
(1.02107 -0.0053073 3.13735e-19)
(1.01826 -0.00324198 -3.28717e-19)
(1.01946 -0.00405318 0)
(1.0213 0.00630739 0)
(1.01661 0.0123907 -3.00598e-19)
(1.02105 0.00452207 2.91702e-19)
(1.01347 0.00179605 0)
(1.01141 0.00215589 0)
(1.02573 0.00556974 0)
(1.02242 -0.000849306 0)
(1.02493 0.00499775 0)
(1.02779 0.00281138 0)
(0.0044343 1.8229 0)
(-0.0065557 1.82007 0)
(0.119444 1.85317 -2.15621e-21)
(0.194275 1.88411 1.21668e-19)
(0.0887654 1.90499 2.66772e-19)
(0.11183 1.90273 -4.27364e-19)
(0.119212 1.87111 0)
(0.106702 1.77018 -1.10543e-19)
(0.108436 1.77572 0)
(0.223058 1.71696 -1.7692e-19)
(0.186052 1.67585 5.64881e-19)
(0.130111 1.80092 1.00719e-19)
(0.189929 1.84733 3.89405e-20)
(0.149546 1.86147 -3.11654e-20)
(0.22366 1.79333 -1.14109e-19)
(0.1798 1.76489 0)
(0.182605 1.75172 1.08203e-19)
(0.00979872 1.76676 -5.02114e-20)
(0.0213536 1.7521 0)
(0.0586487 1.75055 1.90364e-19)
(0.0212524 1.74668 0)
(0.0574883 1.74318 -1.91551e-19)
(0.0374204 1.75064 0)
(-0.00230705 1.76554 -4.34602e-20)
(0.00272907 1.76746 0)
(-0.0038627 1.77225 0)
(-0.00317755 1.76734 4.96673e-20)
(0.0100702 1.77817 1.85358e-21)
(0.000185347 1.76827 2.0368e-19)
(0.0034967 1.77504 1.40273e-21)
(-0.00772221 1.76439 3.92203e-20)
(-0.00545261 1.76314 2.35868e-20)
(-0.00141858 1.79304 0)
(-0.00143743 1.79122 0)
(0.0145279 1.78048 1.20879e-19)
(0.00429459 1.76957 8.4032e-20)
(0.00447574 1.77062 -1.1807e-19)
(0.0256757 1.78916 0)
(0.00209 1.75734 -7.2472e-20)
(0.00287959 1.76555 3.4045e-20)
(0.00226261 1.76787 -9.89822e-21)
(-0.00811483 1.76788 -4.75008e-20)
(0.0014299 1.77612 -1.52659e-20)
(-0.00355989 1.77812 7.41812e-20)
(1.01258 0.000199999 -3.07718e-19)
(1.01295 0.00381218 3.04893e-19)
(1.01273 -0.000423639 0)
(0.989402 0.0662741 4.60728e-19)
(0.97863 0.0247182 -5.18036e-19)
(0.950075 0.0151508 5.95151e-19)
(0.987779 0.0878333 -5.99791e-20)
(1.02488 0.00431411 0)
(1.03252 0.0110353 2.67695e-19)
(1.03315 0.00426194 -2.65882e-19)
(1.02027 0.0307058 -1.56725e-20)
(1.0248 0.0159894 1.38574e-19)
(1.00169 0.0294862 0)
(0.989853 0.0254993 -4.75757e-20)
(1.00626 0.0182889 0)
(1.00211 0.0245683 0)
(1.01495 0.00256809 0)
(1.01557 0.0043872 0)
(1.00327 0.0162625 1.01593e-19)
(1.00337 0.0194961 -2.24286e-19)
(1.00016 0.0260481 -1.07764e-19)
(0.989004 0.0165807 -1.19567e-19)
(0.996903 0.0446382 2.17759e-19)
(1.03836 0.0423818 0)
(1.03246 0.0941033 0)
(0.00905211 1.75834 -2.92564e-20)
(0.0219805 1.75574 -2.72871e-21)
(0.0192342 1.75242 0)
(0.011474 1.77252 3.03936e-20)
(0.00902419 1.77789 4.77991e-21)
(0.0100601 1.77709 -5.10115e-21)
(0.00318133 1.77739 6.25055e-20)
(0.00424385 1.77289 -3.70147e-21)
(0.00401066 1.77312 1.69587e-20)
(0.00847828 1.7758 -3.06151e-20)
(0.00623976 1.77675 3.69732e-20)
(0.0035653 1.77817 4.24214e-22)
(0.0104229 1.76934 3.04617e-20)
(0.258529 1.7937 -1.59606e-19)
(0.230864 1.78605 9.31334e-20)
(0.532623 1.61155 -3.74623e-19)
(0.405514 1.79498 -1.85211e-19)
(0.445329 1.70867 0)
(0.351098 1.59952 1.92826e-19)
(0.39123 1.56154 2.78559e-19)
(0.208953 1.63407 4.21556e-20)
(0.205348 1.62832 -6.34836e-19)
(0.272092 1.63701 5.10564e-19)
(0.287481 1.63098 0)
(0.223589 1.63569 -3.92503e-19)
(0.0708342 1.67544 8.0975e-19)
(0.141186 1.66844 -4.21276e-20)
(0.0741311 1.66932 -1.10219e-18)
(0.805445 1.53695 7.2898e-19)
(0.629897 1.50232 0)
(1.03531 -0.00983648 1.03424e-20)
(1.02011 0.00118244 -8.9007e-21)
(1.02274 0.0184972 -1.53817e-19)
(1.0299 0.0100067 1.53203e-19)
(1.03461 -0.00567168 0)
(0.2994 1.2045 0)
(0.28976 1.06327 0)
(0.618982 0.950323 0)
(0.477212 0.829218 0)
(0.951226 2.67435 6.21284e-20)
(0.841417 2.34565 0)
(0.412658 2.67133 7.73361e-22)
(0.459822 2.0609 0)
(0.547748 2.24629 -4.64312e-19)
(0.518079 2.36758 2.91023e-19)
(0.846287 0.136557 0)
(0.825966 0.16115 8.70151e-20)
(0.911884 0.109873 4.39265e-19)
(0.858407 0.114166 -1.74337e-19)
(0.840779 0.0878156 -5.40873e-19)
(1.00113 0.197141 -2.80645e-19)
(0.914282 0.283225 -1.26335e-20)
(0.852071 0.262857 4.07133e-19)
(0.920413 0.19326 3.09163e-19)
(0.937641 0.14507 -5.58147e-19)
(0.914303 0.148423 7.18116e-20)
(0.906226 0.214507 -1.45436e-19)
(0.912309 0.17623 0)
(0.967152 0.132837 2.66039e-19)
(0.971384 0.135271 0)
(0.968591 0.176773 0)
(1.04816 0.0993124 9.35485e-20)
(0.994818 0.128754 -1.37849e-20)
(0.996984 0.19412 -4.8156e-20)
(1.05804 0.177401 0)
(1.00999 0.0261074 2.35805e-19)
(1.00323 0.0367299 2.83302e-19)
(1.00923 0.0294514 -2.28759e-19)
(1.01381 0.0530132 -1.90915e-19)
(1.00266 0.0625289 -3.23608e-19)
(0.944664 0.0899617 0)
(0.952281 0.0808643 0)
(0.940625 0.0410707 -2.14286e-19)
(0.911007 0.0575375 9.08935e-20)
(1.00898 0.0908584 2.72084e-19)
(0.997949 0.107677 -2.81512e-19)
(1.00657 0.118491 2.48296e-19)
(1.00222 0.122427 0)
(1.00994 0.0903593 0)
(1.00051 0.0810079 -1.1902e-19)
(1.01087 0.0848685 -2.17545e-19)
(0.256072 1.70673 -4.6028e-19)
(0.475549 2.67827 4.23813e-19)
(0.933692 3.10382 3.97354e-19)
(1.17706 3.31915 -1.17274e-19)
(1.0689 2.89454 1.06311e-18)
(1.16956 2.85571 -4.12745e-19)
(0.993951 2.31695 2.40609e-20)
(1.12587 3.24082 4.40556e-19)
(1.10648 3.22003 -6.27253e-19)
(1.1917 3.43444 -3.16098e-19)
(1.35111 3.13573 4.42879e-19)
(1.37589 2.98449 0)
(0.621162 0.821361 4.02547e-21)
(0.125521 1.24767 4.61252e-19)
(0.438046 0.632151 4.47871e-19)
(0.244394 0.374727 4.74397e-19)
(0.552543 0.448842 4.6848e-19)
(0.547451 0.494343 -7.48195e-19)
(0.538603 0.539689 6.15222e-19)
(0.493049 0.503144 -2.61184e-19)
(0.477719 0.443462 5.71481e-19)
(0.804207 0.251586 -1.97408e-19)
(0.758971 0.297405 0)
(0.768474 0.272904 1.24753e-20)
(0.682189 0.500425 1.99808e-19)
(0.652981 0.482239 -7.37857e-19)
(0.582842 0.519112 2.42527e-20)
(0.626218 0.474358 0)
(0.666259 0.684133 1.28273e-19)
(0.815332 0.735575 7.57979e-21)
(0.743048 0.829039 -2.29394e-20)
(0.834594 0.688895 -1.3335e-20)
(0.877229 0.794527 1.65144e-20)
(0.871065 0.767076 -1.69492e-20)
(0.797296 0.570579 -2.12016e-19)
(0.888607 0.637596 1.25022e-20)
(0.962259 0.656354 0)
(0.946492 0.635604 -1.85391e-20)
(0.942329 0.294447 7.3712e-20)
(1.07168 0.282698 2.31805e-20)
(0.981217 0.238098 1.14805e-19)
(0.933177 0.328784 -1.62005e-19)
(0.978257 0.387156 0)
(1.02932 0.380972 0)
(0.834783 0.336967 1.02926e-20)
(0.818974 0.299336 0)
(0.841496 0.274754 2.06002e-19)
(0.834011 0.270526 -5.69264e-21)
(0.871953 0.408007 8.09246e-19)
(0.823675 0.48232 2.04351e-19)
(0.822735 0.443768 -2.70734e-19)
(0.755363 0.418446 2.92073e-19)
(0.737073 0.418863 1.965e-19)
(0.720114 0.409208 -1.9074e-19)
(1.01683 0.0123478 2.47786e-19)
(1.01581 0.00430664 0)
(1.01519 0.0150684 1.69115e-19)
(1.01319 0.0139211 -3.77272e-19)
(1.01534 0.00647991 1.80187e-19)
(1.01615 0.00649231 -3.84261e-19)
(1.01481 0.000365273 0)
(1.01584 -0.00518938 -7.96775e-20)
(1.01957 -2.20731e-05 1.99578e-19)
(1.02059 -0.00366179 -1.02269e-19)
(1.02029 -0.00288817 7.38869e-20)
(-0.00724904 1.81019 0)
(-0.00635928 1.77438 0)
(-0.00867858 1.81673 0)
(-0.00766945 1.81453 0)
(0.0444746 1.80166 6.39913e-20)
(0.062742 1.80924 -1.71744e-20)
(0.0877945 1.78363 -3.80246e-20)
(0.0904331 1.80692 -1.50001e-20)
(0.010501 1.7835 -7.99633e-20)
(0.0129738 1.78676 5.79097e-20)
(0.0345452 1.80069 -1.68082e-20)
(0.00581525 1.80372 -2.33541e-20)
(-0.00098049 1.78869 -2.87248e-21)
(-0.00665435 1.78252 -7.86519e-21)
(0.0666816 1.75931 -2.02441e-19)
(0.0749968 1.75265 0)
(0.076105 1.74841 1.18906e-19)
(0.100969 1.77146 7.82738e-20)
(0.13115 1.72639 -8.63863e-20)
(0.103478 1.67015 0)
(0.113864 1.65305 -5.93983e-19)
(0.160859 1.66267 4.16653e-19)
(0.121418 1.73179 -2.36847e-19)
(0.0962101 1.73084 1.33291e-19)
(0.0558368 1.69797 0)
(0.0133651 1.77336 -1.44625e-19)
(0.0143995 1.77333 -1.72129e-19)
(0.0140487 1.77529 0)
(0.0146631 1.77351 -4.44864e-21)
(0.0120569 1.7699 7.33068e-20)
(-0.000933476 1.77591 7.94767e-21)
(0.00266723 1.78455 -1.26941e-19)
(0.00109824 1.77628 3.2417e-20)
(-0.00676768 1.76087 4.49798e-20)
(-0.000256726 1.7637 0)
(0.00139509 1.7823 0)
(-0.00268557 1.78982 3.43483e-20)
(0.000855093 1.78883 -1.03898e-20)
(0.00216398 1.78768 0)
(0.000977636 1.79062 2.71478e-20)
(-0.00309708 1.78834 -5.47852e-20)
(1.00902 0.0154601 0)
(1.00917 0.0191541 -2.52916e-20)
(1.00568 0.0156963 -1.83666e-19)
(1.01159 0.0229596 0)
(1.01304 0.0266085 0)
(1.00561 0.00933981 -6.09364e-21)
(1.00878 0.00789635 2.96374e-19)
(1.00835 0.00726087 3.66657e-19)
(1.01837 0.00506883 0)
(1.01827 0.00473676 0)
(1.00487 0.0163254 1.85375e-19)
(1.00453 0.0131949 0)
(1.01356 0.0107378 0)
(2.06347e-05 1.75466 0)
(0.00119666 1.7628 2.24721e-21)
(0.0023082 1.75335 1.83978e-20)
(-0.00115507 1.78835 0)
(-0.0021266 1.77513 2.28643e-20)
(0.000612079 1.78511 -1.03117e-20)
(0.000169475 1.78939 0)
(0.288576 1.81638 0)
(0.226111 1.78637 -2.04822e-19)
(0.222849 1.77165 0)
(0.240456 1.78985 1.51634e-19)
(0.267375 1.71969 0)
(0.265782 1.76963 -2.37239e-20)
(0.821427 2.16848 -1.46407e-20)
(0.81748 1.56044 -8.86594e-19)
(0.877701 1.5682 5.41794e-19)
(0.666667 1.50069 2.60952e-19)
(0.624429 1.7734 0)
(0.62835 1.91456 0)
(0.780237 1.51251 0)
(0.734097 1.42768 -9.38818e-19)
(0.403085 1.88591 -4.9763e-19)
(0.576785 1.74462 -1.50111e-19)
(0.490108 1.96108 1.25732e-19)
(0.477286 1.55363 0)
(0.59794 1.5122 0)
(0.535721 1.53121 -3.13315e-19)
(0.554189 1.68797 0)
(0.625592 0.774371 0)
(0.710013 0.688866 6.34888e-19)
(0.738234 0.684556 3.2582e-20)
(0.410981 0.85067 0)
(0.734973 0.943231 -1.02152e-18)
(0.763765 0.843206 4.72014e-20)
(0.72226 0.899487 0)
(0.710042 0.90508 -9.57835e-20)
(0.650955 0.764402 0)
(0.695537 0.789138 0)
(0.873794 2.9931 2.439e-19)
(0.905956 3.09438 1.8295e-19)
(0.543553 2.90016 -6.0078e-19)
(0.414579 2.78555 -4.49839e-21)
(0.856193 2.71581 0)
(0.795588 2.66583 4.62701e-21)
(0.853504 2.33925 2.16662e-19)
(0.868309 2.0361 9.44365e-21)
(0.127194 2.22965 0)
(0.0911186 1.56418 4.02034e-19)
(0.12149 1.53392 0)
(0.889183 0.189459 0)
(0.82946 0.181428 0)
(0.793141 0.181428 0)
(0.880714 0.209098 -3.23267e-19)
(0.821638 0.210173 2.04799e-19)
(0.907814 0.0610268 -1.87854e-19)
(0.904989 0.0948318 0)
(0.90043 0.0953907 8.39292e-20)
(0.864634 0.0864715 3.45329e-19)
(0.876114 0.0644499 -2.13042e-19)
(1.18259 3.48934 -7.33949e-19)
(1.21712 3.45106 0)
(1.19205 3.46306 -1.46435e-18)
(0.71807 3.59265 1.51524e-18)
(0.979852 3.04288 3.1147e-19)
(0.655099 0.935744 2.63398e-19)
(0.710476 0.795816 0)
(0.463588 0.628145 -9.97412e-20)
(0.513973 0.733203 4.08021e-19)
(0.482043 0.62918 -1.30327e-19)
(0.486342 0.579623 1.57593e-19)
(0.609576 0.520758 3.09541e-19)
(0.663196 0.516001 0)
(0.609063 0.646005 0)
(0.548382 0.611748 0)
(0.963923 0.56319 -4.50345e-20)
(0.824857 0.510233 -1.96564e-19)
(0.844141 0.545546 9.09113e-20)
(0.865845 0.50479 -1.46956e-19)
(0.997866 0.465362 0)
(0.998462 0.536594 -8.22622e-21)
(0.784054 0.380925 -4.34173e-19)
(0.791797 0.374362 -4.94548e-19)
(0.759697 0.374309 3.38485e-19)
(0.74656 0.358852 -3.74987e-19)
(0.80446 0.322272 -2.80728e-19)
(0.755169 0.322044 3.45389e-19)
(1.01378 -0.000318431 -1.92588e-19)
(1.01771 -0.000950149 3.91082e-19)
(1.01005 0.00628201 2.42289e-19)
(1.00868 0.00939134 -2.96128e-19)
(1.00167 0.017491 0)
(1.01118 0.00582554 -4.62452e-19)
(0.0432043 1.78643 3.2224e-20)
(0.0351552 1.78611 0)
(0.0778967 1.7732 2.34858e-19)
(0.0884926 1.78698 -2.0954e-19)
(0.0795114 1.79437 7.01927e-20)
(0.0631904 1.79079 0)
(-0.00985125 1.76343 0)
(-0.00523285 1.77242 -1.26401e-20)
(-0.00373969 1.77923 1.1632e-20)
(-0.00229978 1.77358 3.74046e-21)
(-0.00541954 1.75958 -2.30535e-20)
(-0.00522257 1.76344 1.23431e-20)
(0.169578 2.01704 -3.98864e-19)
(0.188138 1.95287 4.15716e-19)
(0.207611 1.78103 -6.76678e-20)
(0.232676 1.90706 1.82989e-20)
(0.293614 1.35513 0)
(0.283321 1.62417 1.87461e-19)
(0.287831 1.49071 -1.81056e-19)
(0.149628 1.72264 6.42075e-20)
(0.118808 1.69403 0)
(0.107619 1.56017 0)
(0.397248 1.78684 7.53052e-19)
(0.426971 1.6166 1.33613e-18)
(0.507187 1.67734 -9.02477e-19)
(0.382235 1.62666 -1.63168e-19)
(0.322272 1.7099 2.72238e-19)
(0.272989 1.6333 -6.68964e-19)
(0.858555 1.7487 -2.91614e-19)
(0.879635 1.97237 0)
(0.895411 1.74242 6.93679e-20)
(0.818092 2.43598 0)
(0.803467 2.33363 0)
(0.902945 2.21791 3.63553e-19)
(1.09381 3.22772 6.44433e-19)
(0.966098 3.00088 -4.84712e-19)
(0.348861 0.977202 0)
(0.498308 0.939251 -2.09483e-19)
(0.71764 0.860412 -3.83389e-20)
(0.627537 1.92216 0)
(0.539727 2.70947 -2.13757e-19)
(0.480766 2.47739 0)
(0.693228 0.670375 -2.70258e-19)
(0.747852 0.666359 3.76208e-19)
(0.759447 0.593395 -3.70626e-19)
(0.647299 0.630028 -4.52677e-20)
(0.674148 0.598805 -1.96283e-19)
(1.06879 2.89588 -4.62846e-19)
(1.02511 3.0434 6.46671e-19)
(0.893991 2.34376 -5.47544e-19)
(0.979023 1.95081 3.69297e-19)
(0.816164 2.4835 1.20091e-18)
(1.02166 2.72187 1.01666e-19)
(0.822254 2.89554 -6.8673e-19)
(0.952092 2.09753 -4.94595e-20)
(0.805312 2.01562 -6.18383e-19)
)
;

boundaryField
{
    wall-4
    {
        type            noSlip;
    }
    velocity-inlet-5
    {
        type            fixedValue;
        value           uniform (1 0 0);
    }
    velocity-inlet-6
    {
        type            fixedValue;
        value           uniform (0 3 0);
    }
    pressure-outlet-7
    {
        type            zeroGradient;
    }
    wall-8
    {
        type            noSlip;
    }
    frontAndBackPlanes
    {
        type            empty;
    }
}


// ************************************************************************* //
