/*--------------------------------*- C++ -*----------------------------------*\
  =========                 |
  \\      /  F ield         | OpenFOAM: The Open Source CFD Toolbox
   \\    /   O peration     | Website:  https://openfoam.org
    \\  /    A nd           | Version:  9
     \\/     M anipulation  |
\*---------------------------------------------------------------------------*/
FoamFile
{
    format      ascii;
    class       volScalarField;
    location    "9";
    object      p;
}
// * * * * * * * * * * * * * * * * * * * * * * * * * * * * * * * * * * * * * //

dimensions      [0 2 -2 0 0 0 0];

internalField   nonuniform List<scalar> 
918
(
0.235562
0.937912
0.00823051
0.233569
0.00247706
0.905395
-0.811009
0.429763
0.214665
-0.128836
0.0250874
0.20407
0.765932
0.532997
-1.40913
0.019172
0.376663
-0.648488
0.210462
0.0102974
0.514346
0.222353
0.225582
0.216668
0.270599
0.530298
0.646022
-0.000901357
-0.00583081
-0.00118768
0.00333015
0.00136514
0.01082
0.788894
0.840174
0.862783
0.184408
0.0870154
-0.656643
-0.748717
-0.690845
-0.82325
0.414568
0.422011
-0.485758
0.428579
0.440772
0.206065
0.213978
0.214839
0.217329
0.215103
0.217057
0.295589
-0.13028
-0.190344
-0.0766959
-0.052998
0.0914335
0.0271056
0.0233927
0.0265247
0.0292348
0.14677
0.20181
0.202166
0.207437
0.217896
0.877485
0.849076
0.875227
0.790029
0.806218
0.743753
0.716185
0.552617
0.573739
0.519387
0.51015
-1.83608
-2.78139
-0.82138
-0.572172
5.52718e-05
0.0252217
0.033844
0.356623
0.363652
0.370873
0.388087
0.772057
-0.573797
-0.753667
0.211104
0.20777
0.22107
0.221558
0.21707
0.216589
0.0179308
0.0219602
-0.000123288
0.00895225
0.00764224
0.484303
0.485098
0.216753
0.212576
0.226724
0.248903
0.233896
-0.0106528
0.282442
0.314326
0.324965
0.508301
0.507103
0.513695
0.619429
0.582366
0.682938
0.706162
0.00533756
-0.000480992
0.0195939
0.0130553
0.0160956
0.183884
0.178555
0.198632
0.188851
0.190632
0.0585856
-0.0761967
0.12231
0.051955
-0.573659
-0.652342
-0.630418
-0.676001
-0.802218
0.36895
0.403613
0.409761
-0.485423
-0.402615
-0.560258
-0.339848
-0.417494
0.191671
0.19936
0.195623
0.210982
0.208871
0.209069
0.21811
0.215096
0.216645
0.329544
0.399897
0.257312
0.231816
-0.385351
-0.232946
-0.404282
-0.0240298
-0.0191449
0.103716
0.113595
0.0820679
0.0740925
-0.00409105
0.0153159
0.00433359
0.0296212
0.0329927
0.136998
0.127827
0.155653
0.16087
0.19534
0.194048
0.19877
0.194439
0.666208
0.688743
0.696669
0.670463
-3.76275
-6.54605
-0.246533
-0.102784
0.00269396
0.00239956
0.00160902
0.00420456
0.00368704
0.00317566
0.047764
0.0461409
0.0378072
0.0427593
0.342977
0.349553
0.76928
0.834634
0.692086
0.679881
0.200332
0.203331
0.206571
0.201884
0.0282694
0.0244722
0.0257568
0.441122
0.462943
0.460457
-0.0500854
-0.139263
0.0366482
0.0606383
0.332806
0.315037
0.334154
0.388828
0.427719
0.714182
0.732858
0.730811
0.739829
0.783564
0.799823
0.765591
0.165656
0.172964
0.170155
0.198585
0.198829
0.196001
0.193037
0.194468
0.193794
-0.229131
-0.638261
-0.251958
-0.266004
-0.0390078
-0.146452
0.45347
0.615401
0.382435
0.394426
0.401158
-0.270072
-0.346699
0.201182
0.179817
0.0864173
0.117313
0.101475
0.63864
0.59797
0.648598
0.621591
0.583139
0.609112
-0.610847
-2.12804
-1.25162
0.264541
0.0668855
0.160333
0.0686198
0.0530576
0.0605107
0.817896
0.857479
0.439303
0.573726
0.548169
0.471938
0.503255
0.555266
0.479831
0.514629
0.551376
0.533303
0.170697
-0.178812
0.0449914
0.678389
0.79265
-0.160297
-0.209621
-0.272081
0.123111
0.1536
0.139764
0.823998
0.789594
0.844857
0.212589
0.214651
0.0101238
0.0160968
0.216757
0.216387
0.00883777
0.0112404
0.13454
-1.10647
-0.18206
0.204453
0.197205
0.212919
-0.0749927
0.292409
0.028189
0.0972613
0.0648179
0.203032
0.152803
0.117104
0.00634186
0.0269535
0.0187691
-0.356316
0.209043
0.208571
0.212066
0.214726
0.213991
0.00710497
0.00949771
0.00645505
0.0162631
0.0113473
0.0112961
0.182099
0.193631
-0.486844
0.212595
0.21437
0.214035
0.206372
0.213012
0.210173
0.0209001
0.0129949
0.0192129
-0.0515318
0.0582942
0.389507
0.520256
0.31581
0.105358
-0.131978
0.293733
0.361737
0.257239
0.430681
0.383394
0.415367
-0.123359
-0.263098
-0.102278
-0.154912
0.202806
0.202511
0.195817
0.190468
0.208544
0.206976
0.210892
0.206992
0.209839
0.211543
-0.0344891
-0.0547184
-0.0910252
-0.173097
0.312835
0.401149
0.243046
0.240077
0.145892
0.0304659
0.0288745
0.029411
0.0223125
0.0729942
0.0706557
0.0815444
0.0813176
0.0555922
0.0535967
0.0704236
0.0665021
0.0742148
0.198157
0.196871
0.201577
0.206545
0.159394
0.165052
0.133972
0.152618
0.13961
0.0887761
0.115634
0.0957776
0.0110793
0.0105756
0.00800341
0.0322137
0.0356234
0.0168398
0.0128512
0.0168664
0.012561
0.0115069
0.0219807
0.0258407
-0.304623
-0.448549
0.761602
0.613139
0.367892
0.201509
0.206504
0.202473
0.206827
0.209243
0.212352
0.210112
0.209051
0.194473
0.195984
0.192878
0.19232
-0.483155
-0.516692
-0.384602
-0.436795
-0.0910015
0.313618
0.0676829
0.00838127
-0.000482223
0.209101
0.490008
0.345481
0.471876
0.495567
-0.614602
-0.255467
-0.562185
0.00374825
-0.114139
0.398811
0.45509
0.480533
0.424383
0.369348
-0.36625
0.253886
-0.362306
-0.32383
-0.144776
-0.24282
0.435767
0.366495
0.37506
0.403131
0.420211
0.373294
0.351893
0.350013
0.39266
0.393685
0.185641
-0.0207949
-0.0711605
-0.106194
0.350922
0.227236
0.289067
0.201109
0.196978
0.200784
0.197992
0.185092
0.191537
0.189704
0.191292
0.19396
0.20397
0.20146
0.199053
0.201453
-0.03214
-0.0191282
-0.0386674
-0.237977
-0.195523
-0.274868
-0.113195
0.136949
0.107096
0.364651
0.404483
0.0794321
-0.111215
-0.0715575
-0.0251579
0.17314
0.161405
0.119225
0.162151
0.181706
0.154069
0.209252
0.193245
0.0504012
0.064951
0.0384852
0.039396
0.10308
0.12086
0.123478
0.0560816
0.054859
0.0346652
0.0310538
0.0849322
0.0538328
0.0719211
0.0735003
0.0291825
0.0324962
0.0357845
0.0494471
0.0470262
0.050849
0.192962
0.193859
0.193612
0.208647
0.218575
0.23161
0.199785
0.178719
0.170066
0.17322
0.15323
0.162326
0.160736
0.16719
0.183209
0.190817
0.189493
0.191257
0.177693
0.179863
0.169936
0.171442
0.155573
0.136668
0.125004
0.0222069
0.0153458
0.0179979
0.0181775
0.0147324
0.0149747
0.0493249
0.0402371
0.0451911
0.0402228
0.045146
0.0215428
0.0228416
-0.164312
-0.0335268
-0.433832
-0.387259
-0.495114
0.722987
0.770695
0.60867
0.506797
0.530152
0.65687
0.696051
0.434788
0.522121
0.519515
0.305727
0.780459
0.204313
0.206044
0.202205
0.20035
0.201937
-0.439035
-0.369712
-0.263885
-0.195453
-0.0580015
0.0424678
-0.494871
-0.0480853
0.0675391
-0.0798047
0.307143
0.32283
0.270754
0.296734
0.300996
0.133937
0.197121
0.256253
0.211979
0.251579
0.274244
0.240771
0.268034
0.213247
0.174696
0.174558
0.120463
0.142452
0.120184
0.0973788
0.192999
0.172383
0.18223
0.175063
0.196526
0.221553
0.213858
0.233227
0.252355
0.181528
0.147929
0.156219
0.179987
0.144255
0.1575
0.170317
-0.513461
-0.556022
-0.233461
-0.388267
-0.241173
-0.283417
-0.28693
-0.356596
-0.0557563
-0.680503
-0.648335
-1.26656
0.206866
0.562412
0.385527
0.326246
0.418516
0.398564
0.4016
0.43157
0.439312
0.342189
0.359828
0.362493
0.325144
0.339699
0.379874
0.37439
0.221553
0.0606515
0.0409041
0.0155448
-0.104681
-0.0720244
0.138578
0.0559605
-0.0109784
-0.00494399
0.164174
0.0626358
0.131435
0.155497
0.0917219
0.0535799
0.247299
0.30662
0.293969
0.278195
0.196326
0.205216
0.23738
0.274142
0.297533
0.327532
0.191586
0.198547
0.19815
0.19609
0.195064
0.19608
0.195939
0.197368
0.198963
0.199594
0.199095
0.0206009
0.0329173
-0.00444648
0.00367968
0.031355
0.0125379
0.0584478
0.0329857
0.0445802
0.0448523
0.0200315
-0.00582801
0.011661
0.034671
0.179639
0.212432
0.194888
0.141179
0.257614
0.379992
0.438402
0.382901
0.22171
0.242436
0.281257
0.0947948
0.0943936
0.0873997
0.102275
0.103655
0.0409605
0.0409761
0.042122
0.0475067
0.0488126
0.0366234
0.027373
0.0282878
0.0324006
0.0315083
0.0313305
0.180896
0.175746
0.17701
0.171606
0.170147
0.182815
0.184257
0.186749
0.190171
0.191217
0.18444
0.188654
0.190393
0.0363525
0.0299593
0.0332069
0.0293996
0.029976
0.0246333
0.024541
0.0202477
0.0533048
0.157429
-0.103004
-0.298844
-0.170456
0.0178907
0.129483
-0.152582
0.629967
0.388956
0.164399
0.311623
0.545395
0.225341
0.500783
0.333121
0.724721
0.669166
0.759733
0.558745
-0.197652
0.0809348
0.128217
-0.266325
-0.0451024
-0.0332285
-0.152944
-0.101784
-0.117149
0.0112177
-0.205898
-0.321768
-0.662299
-0.584759
-0.145555
-0.174266
-0.0729651
-0.169845
-0.596763
-0.702082
-0.543979
0.301339
0.320472
0.338009
0.307739
0.33303
0.257838
0.252327
0.270381
0.28027
0.269801
-0.984362
-0.67848
-1.6648
-0.997669
-0.507839
0.282787
0.243001
0.454992
0.344499
0.410674
0.392912
0.358293
0.326531
0.327329
0.362191
0.0551264
0.162169
0.134575
0.149891
0.0597542
-0.00432946
0.284587
0.274319
0.314296
0.335456
0.297015
0.333556
0.191515
0.190276
0.187729
0.186124
0.183638
0.184614
0.11117
0.0816135
0.133232
0.115105
0.0752432
0.0605457
0.0435789
0.0394521
0.0371471
0.0358815
0.0382875
0.0431562
-0.400294
-0.241542
-0.227428
-0.174145
-0.445683
-0.356295
-0.402313
-0.390436
-0.453181
-0.480692
0.398223
0.645415
0.529353
0.652644
0.482886
0.504331
-0.246462
-0.326405
-0.369161
-0.152653
-0.0493781
0.0443199
-0.480004
-0.383846
0.443025
0.508632
0.371122
0.209803
-0.0653954
0.0654316
0.240604
0.167564
0.212024
0.287177
0.28274
-0.217874
-0.193866
0.131358
0.346185
-0.142518
-0.0733941
-0.136421
0.143397
0.0710063
)
;

boundaryField
{
    wall-4
    {
        type            zeroGradient;
    }
    velocity-inlet-5
    {
        type            zeroGradient;
    }
    velocity-inlet-6
    {
        type            zeroGradient;
    }
    pressure-outlet-7
    {
        type            fixedValue;
        value           uniform 0;
    }
    wall-8
    {
        type            zeroGradient;
    }
    frontAndBackPlanes
    {
        type            empty;
    }
}


// ************************************************************************* //
