/*--------------------------------*- C++ -*----------------------------------*\
  =========                 |
  \\      /  F ield         | OpenFOAM: The Open Source CFD Toolbox
   \\    /   O peration     | Website:  https://openfoam.org
    \\  /    A nd           | Version:  9
     \\/     M anipulation  |
\*---------------------------------------------------------------------------*/
FoamFile
{
    format      ascii;
    class       surfaceScalarField;
    location    "9";
    object      phi;
}
// * * * * * * * * * * * * * * * * * * * * * * * * * * * * * * * * * * * * * //

dimensions      [0 3 -1 0 0 0 0];

internalField   nonuniform List<scalar> 
1300
(
3.75095
5.62643
-6.3226
3.75095
-6.22006
5.62643
-4.53865
4.53865
-1.54466
1.54466
1.8772
1.87375
-5.10694
5.10694
-5.1683
5.1683
-2.92717
2.92717
-5.24635
5.24635
-5.06922
5.06922
4.6594
-4.6594
-5.05406
5.05406
-1.99091
1.99091
-5.38964
5.38964
3.17207
-3.17207
-5.28038
5.28038
-0.634816
0.634816
-0.550306
4.30126
3.20065
3.20065
-2.6735
2.6735
-4.85028
4.85028
6.21819
-6.21819
9.5778
-9.5778
-3.25521
-3.37137
1.3554
-8.10723
-4.86467
-4.86467
-8.44058
8.44058
-2.81415
2.81228
3.03569
-3.03569
-1.67995
1.67995
-4.458
-0.0806433
-4.458
4.66868
-0.130037
4.66868
-1.70021
0.155547
-1.70021
4.10443
-4.10443
1.35799
0.186671
1.35799
3.03263
-3.03263
-1.87775
3.75495
1.87321
-1.8701
6.17136
-1.88085
3.7546
-4.8423
4.8423
-5.2299
0.122954
-5.2299
5.04408
0.062858
5.04408
-5.28971
5.28971
-5.12444
-0.0438535
-5.12444
5.21421
-0.0459136
5.21421
3.1223
-3.1223
-2.95319
0.0260191
-2.95319
2.86555
0.061622
2.86555
0.353872
5.27256
-5.9803
8.79258
-5.27256
0.0262051
5.20868
0.0376695
5.20868
-5.10736
0.0381346
-5.10736
5.00961
0.0596095
5.00961
4.73951
-0.0801183
4.73951
-4.78509
0.125696
-4.78509
-3.33608
-3.27828
-5.12199
0.0679319
-5.12199
-2.02926
0.0383489
-2.02926
1.97679
0.0141142
1.97679
-3.81166
3.81166
-5.29757
-0.0920691
-5.29757
3.11919
0.0528792
3.11919
1.86896
1.88199
5.61992
-5.61992
2.44784
-5.27235
-0.00802887
-5.27235
-5.29854
-4.27927
5.29854
-0.0181598
-0.934128
0.299312
-0.934128
3.16074
0.0399062
3.16074
2.7834
0.0821459
-2.7834
0.109901
3.51011
-3.51011
2.06022
0.613282
2.06022
-5.56953
5.56953
4.94983
0.0597776
-4.94983
0.0995562
6.15743
0.0607597
6.15743
-6.19956
-0.0186327
-6.19956
3.35251
-6.72388
-3.33042
4.96565
0.0884127
-4.96565
0.100982
3.05393
-0.0182442
3.05393
-2.98677
2.98677
-3.02339
-0.0122984
-3.02339
-2.19282
0.512865
-2.19282
1.13303
0.546924
1.13303
-4.34553
-0.112472
-4.34553
-4.94801
-0.349566
4.94801
-0.279323
1.17412
-1.17412
-1.82925
0.129047
-1.82925
-4.21448
-0.131053
4.21448
-0.110052
-4.01978
-0.0846509
-4.01978
-3.01699
-0.00639688
3.01699
0.0156355
3.09258
0.0681655
-3.09258
0.0599503
-1.87039
3.75238
-1.88056
3.75377
-4.67608
-0.166223
-4.67608
4.9614
-0.119095
4.9614
5.40674
-0.0170946
-5.40674
0.17684
5.01515
0.0289343
5.01515
-5.29311
0.00340162
-5.29311
5.28901
0.00069548
5.28901
5.06011
-0.0449595
-5.06011
-0.0643347
5.25232
-0.0381094
5.25232
3.16766
-0.0453589
3.16766
-3.09485
-0.0274515
-3.09485
2.98564
-2.98564
2.96588
0.0197581
-2.96588
0.0126931
-11.1324
11.1138
-0.0349323
-11.0975
5.17375
5.17375
4.1804
0.559112
4.1804
-5.00451
0.219417
-5.00451
3.33535
-6.66577
3.26512
-6.60119
3.33541
-11.4426
3.35911
-6.63739
5.23814
-5.23814
5.1788
0.0593455
-5.1788
0.0568067
-2.02805
-0.00120736
-2.02805
-3.52563
-0.286031
-3.52563
4.091
-0.279346
4.091
-2.99937
2.99937
-3.05752
0.0581496
3.05752
0.0616709
5.26677
-0.014449
-5.26677
-0.00557764
1.14657
0.211419
-1.14657
0.212442
3.70466
-0.194549
3.70466
-3.31761
-0.192503
-3.31761
-2.05549
0.0274429
2.05549
0.00472912
-5.81814
0.248614
-5.81814
-11.1907
0.0932602
-11.1531
-6.1063
-6.1063
2.33428
11.1269
-3.07522
-0.0196229
3.07522
-0.0212941
2.97546
0.0239103
-2.97546
-0.0113104
-2.9961
0.0104528
2.9961
-0.00932205
-2.60084
0.408021
-2.60084
-0.475243
0.475243
-0.682138
0.206895
0.682138
0.450891
1.7164
-0.542287
1.7164
1.9316
0.0451925
-1.9316
0.102347
-3.93744
-0.0823408
-3.93744
5.0977
-0.136299
5.0977
-3.21484
-0.102769
3.21484
-0.0471845
-0.032681
11.1465
-5.14107
0.033714
5.14107
-11.2072
11.2409
-3.25692
0.656083
3.25692
0.92348
5.29378
0.275749
-5.29378
0.289268
5.27516
0.0138469
-5.27516
0.0370197
-3.13379
-0.391842
-3.13379
-4.39465
-0.281427
4.39465
-0.303649
-11.4753
-0.202625
11.678
-11.4157
6.02076
0.136666
-6.02076
11.3776
-0.743308
-0.430809
0.743308
-0.268064
2.20446
-0.488056
2.20446
3.85911
-0.154445
-3.85911
-0.0783282
-5.23471
-0.0583973
5.23471
-0.137013
-2.67873
-0.455054
2.67873
-0.474272
-4.27161
4.31152
1.89975
-3.34896
-3.37491
-7.62823
1.84644
1.90594
4.29428
-7.0405
-4.40215
-6.93951
7.27496
-6.98569
-9.23053
9.15041
7.41342
-7.49807
-5.76505
5.82672
6.36329
-6.34766
1.88086
1.87409
10.5023
-10.3793
-10.571
10.4048
10.2076
-10.2515
10.7277
-10.7243
-12.3688
12.3826
-5.72184
5.74786
-6.61081
6.58336
-6.75441
6.70723
-3.35815
-3.24304
9.01433
-8.9464
11.7514
-11.7594
-10.4596
10.3675
3.36086
0.950657
3.42902
-1.88705
3.76791
-1.86755
3.7673
3.31635
-6.6745
3.34942
-6.72433
6.04654
5.70488
-6.02838
-1.59985
-5.87045
5.85221
-5.84504
5.83572
8.30724
-8.38788
-1.88753
3.76163
-1.86624
3.77218
-3.40873
-2.35633
3.35585
0.938434
5.56031
3.45402
-5.64873
-1.29079
-7.56173
7.40728
-7.8559
7.66339
-0.466952
5.84293
-5.37597
4.38333
-1.5742
7.41713
5.70076
5.92017
5.86993
-5.59418
1.11576
-6.49174
-6.39218
-2.67007
2.79911
2.6353
-2.44863
5.80206
1.61136
5.69201
-5.42218
-2.07589
-5.50452
3.79912
2.0276
3.85727
4.0315
2.3318
4.0251
3.04236
-3.027
-0.0153571
-3.08891
6.13127
0.734623
-5.44523
-4.5068
6.8567
3.64559
6.91956
-6.99199
-3.38734
-6.81515
-6.41962
-4.15137
-6.70104
6.69503
3.70974
6.57593
-7.99034
7.85333
6.80864
3.39898
6.76273
-6.74792
-3.50355
-6.81225
10.463
-2.69111
-7.77185
-6.92536
-5.44339
6.92467
3.80306
7.51709
4.86551
7.55411
3.57038
6.89258
-7.37344
1.93005
-3.8312
-1.89064
-3.81851
3.70887
2.03899
3.77049
-4.13883
-2.47198
-4.15845
-4.1936
-2.56081
4.23896
2.3444
-4.3013
-3.5546
4.40406
2.30316
2.97126
-7.37341
3.66613
-6.90917
-6.27234
-2.67406
-6.21554
4.07107
2.65166
-6.72273
-2.60344
10.9276
-5.22274
9.32777
-7.31911
-4.44033
-7.32469
-7.01316
-3.4464
-7.36273
-6.04979
5.65795
-6.07888
5.79953
11.6785
-5.14405
-6.53448
-3.91381
-2.43385
3.85386
-0.424834
-3.75322
3.73786
0.0146896
3.78199
4.73265
4.30781
-3.86019
-1.98485
-3.8715
3.84122
1.9945
3.85167
6.19809
2.10915
6.06805
-6.01077
-2.37711
-6.12324
9.31847
-8.8056
2.94339
-2.91595
5.11479
2.5486
-4.92024
-2.64149
5.94989
-2.96969
-2.9802
-12.3172
10.5812
1.73593
-4.90003
-0.516708
0.118108
-5.49004
-3.7405
5.36434
0.555834
11.1371
7.39657
-5.51354
5.76216
6.16443
6.2242
-0.167978
5.84577
-5.18968
5.42826
-2.32159
-3.10667
5.09038
-5.22143
-1.03287
-5.18792
4.15505
0.470578
1.86891
-1.56959
-2.17205
-0.498019
-2.0697
1.60968
1.02563
1.8211
1.00208
1.79703
-2.86518
0.496053
2.36912
-1.8631
-1.95258
-3.60606
-0.911134
4.5172
5.39847
2.00882
-5.32014
-0.184375
2.8136
-2.79948
-0.876572
-2.72949
1.90562
-2.78219
-3.37579
-1.85816
5.23395
-3.35142
-0.520086
3.32751
0.529763
-3.7549
-2.11555
3.7672
0.257898
-3.0769
6.13704
-3.06014
-5.06175
2.53716
3.5941
4.56477
-4.87028
2.47935
2.39093
-1.27617
5.9195
1.00006
5.94843
-9.07472
5.68738
7.40941
2.95808
-7.39232
0.577168
-8.49755
9.74284
-8.21801
-1.52483
5.24464
4.4982
5.52723
6.1513
-4.12158
9.64881
-0.592563
-7.62545
9.09011
-6.13203
4.93353
-11.0656
-11.0848
3.45938
-6.98595
8.5849
-1.59895
-2.47827
-5.51207
9.46422
-0.927563
-8.53666
5.64837
-5.37614
-5.2809
10.657
-8.06725
8.78445
-2.65648
-6.12798
-6.69419
-4.03013
6.75259
1.10074
-9.90091
11.831
-3.00834
5.92336
0.839373
5.88525
3.92492
-6.04126
2.11634
4.14233
-6.7988
2.54663
-8.58788
-4.8262
9.46769
-4.64149
-7.50026
-6.70299
-0.797268
2.02568
9.80528
-6.89119
5.30507
1.58612
3.31716
0.534507
-3.33692
-0.481588
0.335871
4.43478
-4.77065
4.10636
4.18851
3.29059
1.14419
3.81649
2.03571
-3.7952
-0.363253
-4.0185
1.45768
-1.6741
-3.41523
4.87291
-3.88369
0.46846
-2.62801
-3.44115
6.06916
-4.51864
3.05018
3.08686
5.04469
-4.77134
1.33019
-2.35432
-2.41702
2.5535
-4.22759
1.81877
3.05414
4.12194
0.567337
4.78897
4.67872
-7.44063
0.53146
8.13274
-6.84195
1.68227
5.87184
-6.98734
0.284353
-5.93118
1.13035
-6.35309
-5.59238
4.63793
-8.08433
-6.42763
6.05403
0.0140244
-5.77471
-1.58803
-3.87379
-2.176
-4.32884
-1.88908
-4.1898
-6.01066
-1.18211
-4.82855
4.47583
-4.50862
-2.19243
4.81227
0.987268
-6.73345
6.30264
-5.4663
4.97825
0.0442179
3.69365
4.35203
1.91818
-2.41747
4.33565
-3.64413
5.75328
-7.30682
3.66269
4.04164
-6.41875
-3.26518
5.05766
4.2608
5.60459
8.73602
-12.3559
3.61988
-12.0695
11.0408
1.02869
-17.2479
5.17841
-8.51192
2.70787
0.235528
2.70666
0.642531
2.32137
-2.9639
-2.27342
-2.26869
-2.15542
-3.24443
5.39986
1.04875
-3.19656
2.14781
-3.39661
4.44537
0.0237004
-3.22026
5.14967
-2.8283
5.3852
-3.37291
2.01229
3.12158
5.37568
-2.2541
4.18002
-1.63142
1.7059
-3.96
-1.53853
-2.94907
4.98806
-3.12009
3.58855
-0.217407
3.80595
-3.90946
0.939771
-0.618867
3.56964
3.67954
4.16283
-3.01864
2.77737
-4.40879
-1.18263
-3.84145
-0.787317
0.837446
-4.85351
4.01606
7.39506
-6.55761
-5.28653
9.9511
-4.66458
7.83834
-5.36056
-2.47778
-4.3356
-4.47
3.92758
1.91818
9.75653
0.261611
-5.62217
-4.92807
-4.00459
3.25679
2.17147
-2.10991
3.84584
1.9918
-0.122893
0.622458
1.19864
1.86245
-1.24
0.158514
1.70394
-1.41108
2.11837
0.695229
-2.16356
0.0938573
-1.3898
3.29542
0.979322
-2.00495
0.764953
1.10845
-3.43004
4.83502
-2.59856
-2.23646
5.94346
0.964896
-3.56346
4.22302
-3.75245
2.28043
-3.19157
-1.28302
-5.03547
-3.42411
-2.36605
4.51386
-3.03381
5.04262
1.13807
-4.85825
5.99631
-3.34807
1.48991
-3.05512
3.75034
-1.0973
-1.95782
2.6297
2.60425
-2.8205
0.0910108
-0.190805
2.17847
-2.36927
-0.603724
-2.46682
-4.57909
4.83698
-2.08836
4.56772
2.24729
-1.90362
6.47134
1.84801
-3.75163
-3.21374
-3.73382
-1.36071
3.20406
-1.00562
-5.80663
-7.1336
5.85159
0.0968395
-9.09088
10.2889
-1.198
-5.44529
-0.242086
5.48673
-7.52244
0.723635
-4.97581
5.31307
6.31313
6.40997
-8.54639
0.00972812
-4.83665
1.39018
-6.22683
5.88838
-3.2344
6.69377
-7.40168
5.20926
-6.41442
5.16895
-1.05789
5.59261
-3.47627
2.17924
-6.20938
-5.10863
6.97534
-3.57637
7.81472
-4.07233
11.8871
-7.08067
6.91839
4.96866
-1.37895
-5.94574
-6.84345
5.4645
0.0749415
5.96019
4.86095
-2.82523
4.49769
2.20188
-4.55621
-2.02571
-6.39426
1.83805
-3.3074
-1.85988
3.69794
3.1848
3.71931
1.28092
-3.23772
6.63314
-7.43041
-1.99166
-3.60072
6.76228
-1.29778
4.03114
-7.63186
-2.32195
7.13696
-3.14941
-3.98755
-1.99291
-4.43471
4.02423
-8.45894
4.06011
-5.64813
1.99402
-10.5059
-4.73943
-5.0075
-1.6021
-3.8642
-7.07456
5.47246
-1.89615
4.40649
-8.88562
5.73621
-2.15522
7.62768
-3.49027
-0.838573
3.96454
1.01371
8.64139
1.41152
-4.6767
-2.25986
4.61454
-2.35468
0.996932
-3.44199
1.17255
2.40716
3.53631
-6.56221
0.143464
-4.53324
-4.02335
8.28415
5.92776
13.3228
0.966911
9.70439
-1.42024
10.6713
4.18434
4.63523
-3.54545
7.16533
0.470612
4.1333
-0.834977
2.84727
1.87168
1.91003
0.889452
2.22146
1.45808
3.16123
0.197328
-2.07136
4.58702
-8.59162
-1.03515
-8.03251
1.11791
5.6811
-4.56319
3.50314
-1.33167
1.14846
0.407335
-1.79279
1.38545
-2.69934
-1.91568
-0.211741
-1.49475
2.2597
1.80067
-2.04796
-0.651376
0.257515
-3.68163
2.93405
-2.84304
-0.238793
5.75752
-2.57055
0.201276
-1.08064
-2.26555
-2.76356
2.66971
6.14873
0.322609
3.08859
5.15959
3.04404
0.218814
4.48672
-6.08567
-4.10116
-6.07595
-0.187566
5.29916
2.03676
7.76852
7.00542
5.70764
-1.92423
-9.35464
7.08159
0.0837442
8.11028
-4.12272
-4.33622
4.07866
1.67461
-4.09269
-1.55545
-5.89166
-5.80792
-1.22901
6.96522
-7.41238
6.57381
4.3978
0.430745
-4.4704
-0.537092
4.26351
0.371724
11.043
-1.08434
-6.733
7.81734
-4.59676
3.56161
1.18651
2.65933
2.57197
1.2403
-5.49271
-10.0559
-1.86061
-1.56943
-4.09707
0.420129
-2.2208
6.18207
-2.62046
3.7043
5.19688
6.34534
-1.76562
-4.79199
6.4302
-2.72591
3.61943
)
;

boundaryField
{
    wall-4
    {
        type            calculated;
        value           uniform 0;
    }
    velocity-inlet-5
    {
        type            calculated;
        value           uniform -3.75095;
    }
    velocity-inlet-6
    {
        type            calculated;
        value           uniform -5.62643;
    }
    pressure-outlet-7
    {
        type            calculated;
        value           nonuniform List<scalar> 8(6.3226 6.22006 6.62658 6.75183 6.61436 6.68293 6.60047 6.69452);
    }
    wall-8
    {
        type            calculated;
        value           uniform 0;
    }
    frontAndBackPlanes
    {
        type            empty;
        value           nonuniform List<scalar> 0();
    }
}


// ************************************************************************* //
