/*--------------------------------*- C++ -*----------------------------------*\
  =========                 |
  \\      /  F ield         | OpenFOAM: The Open Source CFD Toolbox
   \\    /   O peration     | Website:  https://openfoam.org
    \\  /    A nd           | Version:  9
     \\/     M anipulation  |
\*---------------------------------------------------------------------------*/
FoamFile
{
    format      ascii;
    class       volVectorField;
    location    "9";
    object      U;
}
// * * * * * * * * * * * * * * * * * * * * * * * * * * * * * * * * * * * * * //

dimensions      [0 1 -1 0 0 0 0];

internalField   nonuniform List<vector> 
918
(
(0.985034 -0.00159363 0)
(0.00494975 2.9663 0)
(-0.00132165 1.68521 0)
(0.97916 0.00295373 0)
(-0.00373511 1.65817 -3.16114e-21)
(-0.00697659 2.94873 -1.9244e-18)
(0.87276 1.17462 7.18189e-19)
(0.52076 0.269914 -9.38407e-21)
(0.999897 -0.000361755 0)
(0.0530137 1.51221 0)
(-0.00955964 1.53888 0)
(0.87393 0.000710373 0)
(0.0110937 2.93022 0)
(0.00142957 2.7953 0)
(-0.0167819 3.15135 1.04533e-18)
(7.60111e-05 1.58994 -2.05899e-20)
(0.631984 0.12073 5.78435e-19)
(0.231479 1.7096 5.10185e-19)
(0.965882 0.0139005 0)
(-0.00055073 1.58035 0)
(0.21976 0.315074 -5.04755e-19)
(1.00186 -0.00469907 0)
(1.00018 -0.0092587 0)
(0.975885 -0.00499648 0)
(0.796914 -0.0293296 0)
(0.019812 2.62937 0)
(-0.0152043 2.91004 6.69244e-19)
(-0.00907773 1.69887 0)
(-0.00733733 1.76699 0)
(-0.010217 1.70457 0)
(0.000946978 1.8 0)
(-0.000675839 1.67525 2.50383e-21)
(0.00321625 1.59728 0)
(-0.0206731 2.98754 -6.7511e-23)
(-0.0167776 3.00537 1.49731e-18)
(0.00212231 3.00036 0)
(0.911808 0.00189156 0)
(0.320655 0.937796 4.40163e-20)
(0.830866 1.22543 -9.97914e-19)
(0.987575 1.03661 9.46422e-19)
(0.685291 1.36177 -1.58783e-19)
(0.735522 1.3086 9.00473e-19)
(0.566729 0.327428 9.15616e-21)
(0.564226 0.229656 0)
(1.201 0.571324 0)
(0.511501 0.33798 4.25147e-20)
(0.484775 0.256256 -4.41168e-20)
(0.911454 -0.00210795 0)
(1.00031 0.000247742 0)
(0.999979 0.0002117 0)
(1.00385 -0.00737855 0)
(1.00097 -0.00159568 0)
(1.00012 -0.000490425 0)
(0.0186624 1.55552 -5.65204e-19)
(0.0337515 1.64085 0)
(0.0918395 1.53894 0)
(0.0135435 1.6397 0)
(0.0296941 1.47321 0)
(-0.00547736 1.60489 0)
(-0.0121233 1.63072 0)
(-0.00733588 1.52373 0)
(-0.0139778 1.65359 0)
(-0.0076937 1.55288 0)
(0.935624 0.00506649 0)
(0.930289 0.00441133 0)
(0.881815 -0.00295055 0)
(0.922913 0.0129511 0)
(0.851296 0.0122141 0)
(0.0148026 3.0003 7.05435e-19)
(0.0117226 3.00715 0)
(0.00632976 3.00322 0)
(0.0135915 2.99706 7.88196e-24)
(0.00812044 2.9584 -1.04845e-18)
(0.0144901 2.98228 0)
(0.0107961 2.90371 0)
(0.025164 2.93088 1.43219e-24)
(0.00417693 2.82597 0)
(0.0317164 2.91549 0)
(-0.00688435 2.74426 0)
(0.303718 3.54394 0)
(-0.132564 3.62172 0)
(0.13668 3.24346 -9.72785e-19)
(-0.0184432 2.98528 0)
(0.00818147 1.76346 0)
(-0.00161904 1.67212 2.03145e-20)
(-0.000253017 1.59204 -3.26152e-20)
(0.690484 0.166537 -1.98452e-19)
(0.658573 0.0790255 -1.91342e-19)
(0.667335 0.19372 -5.98261e-19)
(0.629724 0.140642 -4.03341e-19)
(0.233679 1.29653 0)
(0.250567 1.74128 -5.46425e-19)
(0.412702 1.6472 9.13569e-19)
(0.985115 0.0134221 0)
(0.940385 0.0128837 0)
(1.00055 0.000433884 0)
(1.00234 0.00948592 0)
(1.00175 0.0112165 -1.0906e-18)
(0.99182 0.00916112 8.32302e-19)
(-0.00199921 1.6632 0)
(0.00242999 1.58158 0)
(-0.0087511 1.71708 0)
(-0.00548644 1.67726 0)
(-0.000342747 1.58528 0)
(0.312825 0.330173 1.58084e-19)
(0.343717 0.276243 0)
(0.994112 -0.00816405 0)
(0.957292 -0.00519018 0)
(0.892446 0.0225134 0)
(0.865191 0.014321 0)
(0.829641 -0.00720414 0)
(1.04879 0.00293783 0)
(0.828337 0.0220239 0)
(0.743245 -0.00536522 7.75366e-19)
(-0.0358795 2.86499 3.53686e-19)
(0.0435332 2.90744 0)
(0.0560831 2.884 0)
(-0.00660852 2.69691 0)
(-0.0129187 2.98521 6.16962e-19)
(-0.0180625 2.89567 0)
(-0.0153743 2.98826 -1.94812e-18)
(-0.013405 2.92534 6.71795e-19)
(-0.00542228 1.79397 0)
(0.000551958 1.7818 0)
(-6.50577e-06 1.67846 -5.76912e-22)
(0.00243663 1.67186 0)
(0.00160066 1.58828 0)
(0.958941 0.00507226 0)
(0.914319 0.00612364 0)
(0.891996 -0.0100569 0)
(0.957759 -0.00189463 0)
(0.905486 -0.00487865 0)
(0.453637 1.13977 -5.65862e-20)
(0.534541 1.212 0)
(0.197307 0.803081 9.36054e-21)
(0.216276 0.598649 0)
(0.945668 1.08603 -2.72332e-19)
(1.0652 0.881557 5.63904e-19)
(0.377683 1.64756 0)
(0.530173 1.50572 0)
(0.593856 1.47385 0)
(0.202917 0.186371 -1.91633e-19)
(0.602276 0.293534 0)
(0.591503 0.213406 1.16748e-19)
(1.04037 0.934313 0)
(1.11749 0.782332 0)
(1.14037 0.729214 -4.9147e-19)
(1.18419 0.62643 0)
(1.23595 0.418594 6.38698e-20)
(0.955002 0.000394014 0)
(0.950708 -0.00106849 0)
(0.905722 0.00156915 0)
(0.983503 -0.00837173 0)
(0.962352 -0.00427873 0)
(0.931982 -0.00352856 0)
(0.999835 0.00201163 0)
(1.00097 0.00215572 0)
(0.999711 0.000915336 0)
(0.0114414 1.62789 3.06289e-19)
(0.0529851 1.53826 0)
(0.00167499 1.64761 5.04963e-19)
(0.0113852 1.56035 -4.32405e-19)
(0.0988537 1.72641 -4.30478e-19)
(0.0475187 1.68824 0)
(0.160863 1.63743 0)
(0.00428427 1.61571 0)
(0.0101542 1.47485 0)
(-0.0104347 1.68676 -1.37543e-21)
(-0.00547409 1.6218 0)
(-0.00585364 1.68653 -6.77377e-20)
(-0.00118231 1.60877 1.29332e-19)
(-0.0133994 1.61707 0)
(-0.015044 1.62685 0)
(-0.0058769 1.4969 0)
(-0.0104226 1.66487 0)
(-0.00269387 1.56341 0)
(0.993575 0.0116041 0)
(0.953494 0.00127592 0)
(0.978216 0.00730282 0)
(0.930408 0.00389587 0)
(0.888987 0.000326417 0)
(0.946432 0.00731941 0)
(0.939068 0.000443826 0)
(0.884726 0.00251482 0)
(0.00580903 3.06517 -6.23571e-21)
(0.0161563 3.05817 0)
(0.014713 2.96921 0)
(0.00869028 2.87675 0)
(0.926111 3.95647 0)
(1.24123 3.29491 9.85457e-19)
(0.0675721 3.07844 0)
(-0.0279647 2.91011 0)
(0.00619338 1.77297 0)
(0.0120728 1.75809 0)
(0.00802293 1.75966 0)
(0.00336627 1.78738 5.63905e-21)
(0.0143714 1.77104 0)
(0.00236305 1.78468 0)
(-0.00146999 1.59362 3.01372e-21)
(-0.00337843 1.68132 4.0818e-20)
(0.000885229 1.67377 3.3312e-20)
(-4.32855e-06 1.58552 0)
(0.71344 0.124054 2.91849e-19)
(0.67193 0.0485243 -2.82862e-19)
(0.189544 1.40243 0)
(0.30874 1.2129 -2.58397e-19)
(0.136115 1.45393 -7.57853e-19)
(0.169386 1.35635 7.5641e-19)
(0.891412 0.00660775 0)
(0.959494 0.0122448 0)
(0.97365 0.0159385 0)
(0.915077 0.0138962 0)
(-0.00158271 1.66987 0)
(-0.0010367 1.66844 0)
(0.00380433 1.57467 0)
(0.469258 0.352897 3.89485e-19)
(0.417421 0.340887 -4.78292e-19)
(0.416258 0.25732 0)
(1.16893 0.0833363 -3.02888e-21)
(1.15568 0.0364617 0)
(1.07918 0.0393757 0)
(0.995786 0.0065212 0)
(0.737305 0.102576 0)
(0.776472 0.0664077 -1.24032e-18)
(0.70441 0.0382597 4.73291e-19)
(0.00970157 2.9826 4.4227e-19)
(-0.0319965 2.86795 4.95998e-20)
(0.00417329 3.04964 -1.34539e-20)
(0.0195376 3.04423 4.8625e-19)
(-0.0150613 2.99624 2.23272e-20)
(-0.0130562 2.9493 -9.05773e-23)
(-0.0173203 3.01232 -4.22829e-19)
(0.0141512 3.02547 3.03125e-19)
(0.0068501 3.03601 -4.74689e-19)
(0.976399 0.00468466 0)
(0.970925 0.00665315 0)
(0.920578 0.00462354 0)
(0.950122 0.00777957 0)
(0.946152 -0.00477737 0)
(0.88673 -0.00179821 0)
(0.950615 0.000548616 0)
(0.945706 -0.00419446 0)
(0.895651 -0.00790238 0)
(0.720283 1.43891 2.23016e-19)
(0.760308 1.54691 0)
(0.0734993 -0.0372516 -3.03905e-20)
(0.190063 0.406531 -3.77033e-19)
(0.131808 0.492814 4.85978e-20)
(0.14129 0.201345 -1.30384e-19)
(0.416777 0.773047 1.13307e-18)
(0.299168 0.487723 3.48037e-19)
(0.658552 0.234099 4.36879e-19)
(0.631475 0.271633 1.06484e-19)
(0.613629 0.184079 2.2323e-19)
(1.22519 0.467626 2.91695e-19)
(1.24975 0.259271 3.09576e-19)
(0.00408176 1.6556 2.01185e-19)
(0.0174845 1.59052 0)
(1.02881 0.0224278 0)
(1.00411 0.00975881 0)
(0.965194 -0.00111999 0)
(0.0107763 3.07363 0)
(0.0198096 2.9446 8.34842e-19)
(0.0163071 2.95639 0)
(0.00590694 2.85153 -8.28116e-19)
(0.00615165 3.09118 1.98471e-19)
(0.00734874 3.08237 0)
(0.803705 1.84424 -2.18512e-19)
(1.25115 2.49788 6.00221e-19)
(0.789417 1.97451 -1.42187e-18)
(0.0206585 2.98442 -3.28564e-19)
(0.0355343 3.00644 0)
(-0.0322321 2.88146 0)
(-0.00206033 1.67725 -5.62265e-21)
(-0.00347562 1.68358 -9.34621e-20)
(0.000338977 1.60044 -6.7115e-21)
(0.267912 1.29645 8.15101e-19)
(0.348137 1.10021 -5.63088e-19)
(0.0396959 1.58845 5.06699e-19)
(0.0830527 1.52694 -6.23001e-19)
(0.102362 1.45609 7.31182e-20)
(0.0026217 3.11783 -1.18086e-18)
(0.01756 3.11764 1.26238e-18)
(-0.0085598 2.9812 5.37915e-19)
(-0.00255566 2.97797 -4.7862e-19)
(-0.0213725 2.88264 -5.47846e-19)
(0.00910389 3.09898 -1.45706e-18)
(0.00256285 3.10622 1.41597e-18)
(0.437875 0.602101 0)
(0.364937 0.453873 2.89848e-19)
(0.109183 0.0198424 -7.21371e-20)
(0.418134 0.900419 9.64406e-19)
(0.365925 0.709556 -1.46737e-18)
(1.24702 0.172672 -5.2012e-20)
(1.24882 0.312367 0)
(1.23563 0.12318 1.20539e-19)
(-0.00275566 1.696 -1.69313e-21)
(0.00652533 1.6749 0)
(0.0106971 1.61703 0)
(0.319138 1.16794 -2.86288e-19)
(0.347354 1.0454 -6.62648e-19)
(0.370701 0.928749 1.19017e-18)
(1.00602 -0.0118306 0)
(1.00566 -0.00563372 2.0049e-19)
(-0.00452513 1.79339 0)
(-0.00798796 1.79741 0)
(1.00246 0.00361199 1.40796e-21)
(1.00125 0.0109965 4.07169e-19)
(0.00321039 1.78801 -7.25523e-21)
(0.000465199 1.7881 0)
(0.0393979 3.18234 1.20496e-19)
(0.382919 3.48033 0)
(1.10701 0.647612 6.65046e-20)
(1.01284 0.0150207 -1.84697e-21)
(1.0051 -0.0102692 0)
(1.00247 -0.000307278 2.81541e-22)
(0.0317526 1.81509 0)
(0.0313459 1.75935 0)
(-0.0128427 1.79354 0)
(-0.00431941 1.78629 9.47541e-20)
(0.00035694 1.79124 4.64465e-20)
(0.997161 0.0132106 1.8086e-21)
(1.04461 0.00945504 0)
(1.07236 0.0211555 0)
(0.0134201 1.76424 0)
(0.00661644 1.7826 0)
(-0.00297833 1.79393 0)
(0.100142 1.7956 -2.91599e-19)
(1.01156 -0.0168818 0)
(1.00539 -0.0268418 0)
(1.0056 0.00121671 2.52386e-19)
(1.00276 -0.00416345 -3.06445e-19)
(1.00199 -0.00346466 0)
(0.00344298 1.77209 0)
(-0.00205195 1.79179 0)
(0.0032068 1.78148 0)
(-0.00295314 1.79437 0)
(-0.00324832 1.79049 0)
(-0.00393235 1.79331 0)
(1.02427 0.00589927 0)
(1.01905 0.00117149 -8.26006e-22)
(0.716401 1.16907 5.04034e-19)
(1.00266 0.00176058 -2.53665e-19)
(1.00377 0.00666496 3.01154e-19)
(1.00113 0.00242607 0)
(1.01151 0.0118163 2.44635e-19)
(1.00667 0.0126435 -3.06064e-19)
(0.998056 0.0134348 0)
(0.00552026 1.78548 0)
(0.00305911 1.78734 1.93593e-20)
(0.0026169 1.78339 -1.39515e-20)
(1.16338 0.248933 -3.51354e-20)
(1.1042 0.0838398 0)
(0.0647557 3.08374 -5.37959e-19)
(0.0659007 2.85459 -4.37469e-20)
(0.136297 3.20995 7.05794e-19)
(0.134022 3.23362 -1.5583e-20)
(0.134286 3.23671 0)
(0.0227108 3.13922 1.20218e-19)
(0.0771883 3.1671 5.29336e-19)
(0.0729805 3.19183 -2.32e-19)
(0.0293626 3.12791 0)
(0.697349 0.347834 0)
(0.604597 0.400998 0)
(1.07302 0.670653 -2.50621e-19)
(1.06263 0.793375 3.88787e-19)
(1.11854 0.54363 0)
(1.16794 0.508649 0)
(1.01275 0.015878 -4.59233e-19)
(1.01136 0.0177618 5.94294e-19)
(1.00701 -0.000841863 0)
(1.00917 0.00376999 0)
(1.00712 0.00100732 0)
(1.01461 0.00663905 0)
(1.00505 0.000328745 0)
(1.01851 0.0109059 0)
(1.01128 0.00839316 0)
(1.00729 0.00260876 0)
(0.0289265 1.81161 0)
(0.017058 1.81714 0)
(0.0422323 1.82935 0)
(0.0360314 1.8184 0)
(0.0426519 1.75558 0)
(0.0608787 1.76034 -3.27399e-19)
(0.0173385 1.77167 0)
(0.0126217 1.76565 1.66786e-19)
(0.0372322 1.78286 -1.69104e-19)
(-0.0111466 1.79712 0)
(-0.0099333 1.79707 0)
(-0.0188417 1.79298 0)
(-0.0184458 1.79708 0)
(-0.00127332 1.78855 -5.71167e-20)
(-0.000336386 1.79143 6.48146e-20)
(-0.0028768 1.79258 8.44251e-20)
(0.000259527 1.79208 0)
(-0.00337125 1.79342 -1.08991e-19)
(-0.00394532 1.79039 -6.2543e-20)
(0.0005641 1.78919 4.64006e-20)
(-0.0010645 1.78909 -8.50466e-20)
(5.62021e-05 1.79143 -1.00926e-19)
(1.00715 0.0144109 4.49533e-19)
(1.00882 0.00632413 -5.59984e-19)
(0.998498 0.0245364 -4.7048e-19)
(0.986632 0.0204564 5.8734e-19)
(1.03899 0.0153781 0)
(1.04106 0.00632605 0)
(1.05774 0.0302214 0)
(1.04384 0.00847658 0)
(1.05924 0.0121461 0)
(1.09193 0.0665315 0)
(1.07232 0.0419724 0)
(1.09451 0.0340994 0)
(0.0106522 1.77583 -2.18209e-21)
(0.012404 1.76253 0)
(0.0133768 1.76826 0)
(0.00344656 1.78518 2.15056e-20)
(0.00104693 1.78475 -9.27718e-22)
(-0.0011788 1.77411 1.73006e-20)
(-0.00118271 1.78176 -1.7477e-20)
(-0.00301663 1.79217 0)
(-0.00182364 1.79186 0)
(-0.00144903 1.79068 0)
(-0.00273616 1.79401 0)
(-0.0021024 1.79349 0)
(0.161348 1.73167 5.01382e-19)
(0.219209 1.6496 2.47431e-19)
(0.419925 1.63974 -2.06873e-19)
(0.169312 1.69844 5.11174e-19)
(0.160017 1.92642 1.40681e-19)
(1.00499 -0.0152621 0)
(1.00766 -0.0262997 0)
(0.999662 -0.0273029 0)
(1.01427 -0.00750593 0)
(1.00878 -0.00813357 0)
(1.00542 -0.0105466 0)
(1.0093 -0.0161716 0)
(1.00857 -0.018335 0)
(1.02087 -0.00083971 4.35309e-19)
(1.02154 -0.00185859 -5.46011e-19)
(1.01875 0.0038371 -4.44013e-19)
(1.01513 0.00566023 5.48352e-19)
(0.708214 1.21289 0)
(0.587949 1.25508 5.48233e-19)
(0.807844 1.11641 3.5384e-19)
(0.850099 1.08933 -4.74112e-19)
(1.14013 2.6613 -3.55452e-19)
(0.826444 0.127017 2.94908e-19)
(1.10668 0.0899572 0)
(1.15295 0.171089 3.55615e-20)
(1.14369 0.153344 2.23006e-21)
(0.965059 0.126872 0)
(0.135918 3.00113 8.46656e-20)
(0.126894 2.89744 -6.4211e-19)
(0.062088 2.34355 4.81345e-19)
(0.143712 0.18779 -1.96176e-19)
(0.330539 3.41097 -4.10045e-19)
(0.185492 3.32065 0)
(0.224637 3.34757 5.34039e-19)
(0.243996 3.057 -5.80173e-19)
(0.317741 3.19355 0)
(0.00633919 3.12099 2.79947e-20)
(0.0171061 3.12962 -3.57889e-19)
(0.0152262 3.12512 5.26761e-19)
(0.0376183 3.14071 0)
(0.037033 3.15239 0)
(1.26007 2.61415 0)
(0.543373 0.852231 -2.67707e-19)
(0.988133 0.951787 -2.05746e-19)
(0.929009 0.972119 0)
(0.822058 0.888752 6.33141e-20)
(1.03595 0.836376 3.11738e-20)
(0.405113 0.468036 -5.58752e-19)
(0.727205 0.341684 -2.22601e-20)
(0.739166 0.305952 2.28968e-19)
(0.609977 0.431562 1.83086e-20)
(0.572271 0.424905 -7.48181e-19)
(0.692774 0.371327 0)
(0.679638 0.425791 3.78954e-19)
(0.681983 0.418845 0)
(0.64237 0.421523 0)
(0.662099 0.365326 0)
(0.739833 0.594173 1.39345e-19)
(1.15493 0.257891 1.19384e-20)
(1.15623 0.38777 0)
(1.18443 0.359477 0)
(0.79547 0.216791 3.45367e-19)
(0.779629 0.547329 -1.96625e-19)
(0.68775 0.497713 3.17288e-19)
(0.876066 0.406993 -3.01078e-19)
(1.02101 -0.00244774 2.98654e-19)
(1.0154 0.0104296 -3.13339e-19)
(1.01709 0.00424067 0)
(1.02217 0.0100635 0)
(1.01239 0.0100318 -2.81172e-19)
(1.01541 0.00931807 2.7815e-19)
(1.01858 0.00311792 0)
(1.01998 8.39158e-05 0)
(1.01979 0.00943669 0)
(1.02114 0.0112668 0)
(1.03111 0.00246026 0)
(1.02995 0.00177727 0)
(0.0165074 1.8157 0)
(0.00959116 1.80471 0)
(0.0602613 1.8297 1.84649e-21)
(0.097075 1.80155 1.38163e-19)
(0.0665018 1.83796 2.86812e-19)
(0.070152 1.83187 -4.73281e-19)
(0.0629317 1.83636 0)
(0.0546407 1.78959 -1.1504e-19)
(0.0541671 1.79331 0)
(0.158386 1.89018 -2.01492e-19)
(0.178038 1.79881 5.772e-19)
(0.0693145 1.81288 1.02874e-19)
(0.0710777 1.7955 4.74229e-20)
(0.0744822 1.81583 -3.95796e-20)
(0.0526476 1.77802 -4.97816e-20)
(0.0921644 1.80529 0)
(0.0829767 1.8165 6.80593e-20)
(0.0175943 1.78944 -5.12292e-20)
(0.0298417 1.77778 0)
(0.0254255 1.77403 1.95682e-19)
(0.0296474 1.78151 0)
(0.0156822 1.77058 -1.83183e-19)
(0.025899 1.77252 0)
(-0.0131427 1.77766 -4.3386e-20)
(-0.000724638 1.78933 0)
(-0.0129866 1.78847 0)
(-0.0173234 1.77654 5.05388e-20)
(-0.000183848 1.78509 -2.65427e-21)
(0.0247359 1.7873 1.97495e-19)
(0.00805921 1.78547 1.35958e-21)
(-0.00697545 1.77621 3.67365e-20)
(-0.006284 1.77732 2.30213e-20)
(-0.0105834 1.7969 0)
(-0.00931616 1.79681 0)
(0.013368 1.7926 1.21444e-19)
(0.00882782 1.78899 8.26818e-20)
(0.00140044 1.78753 -1.18485e-19)
(0.0301695 1.79901 0)
(-0.00310068 1.77206 -7.4238e-20)
(-0.00133118 1.78223 3.31393e-20)
(-0.00482295 1.78314 -1.02527e-20)
(-0.00617398 1.77594 -4.55529e-20)
(-0.00707076 1.7864 -1.56591e-20)
(-0.00683465 1.78735 7.57913e-20)
(1.01451 0.00741333 -2.92517e-19)
(1.01346 0.00464209 3.04269e-19)
(1.01076 0.00314416 0)
(0.992399 0.0563062 4.41711e-19)
(0.983995 0.0285908 -5.00675e-19)
(0.959203 0.0239358 5.7416e-19)
(0.996957 0.0953635 -5.64844e-20)
(1.02507 0.00364546 0)
(1.03046 0.0117379 2.53632e-19)
(1.03258 0.00416135 -2.51543e-19)
(1.03031 0.0352643 -1.43822e-20)
(1.02941 0.01989 1.27263e-19)
(1.00815 0.0323793 0)
(1.0005 0.0296056 -4.56768e-20)
(1.00536 0.0240304 0)
(1.00767 0.0217701 0)
(1.01799 0.00413442 0)
(1.01684 0.00502041 0)
(1.00671 0.0234529 9.5601e-20)
(1.01055 0.0191824 -2.18569e-19)
(1.00988 0.034283 -1.00708e-19)
(1.00308 0.027035 -1.13343e-19)
(1.00572 0.0333303 2.07564e-19)
(1.04196 0.0386965 0)
(1.03188 0.0881748 0)
(-0.0029231 1.76994 -2.71994e-20)
(0.00447086 1.76502 -2.47995e-21)
(-0.0018275 1.76571 0)
(0.000564769 1.77718 2.69336e-20)
(0.00886197 1.77284 4.45366e-21)
(0.00349014 1.77632 -4.2971e-21)
(-0.00475353 1.78961 5.51656e-20)
(-0.00557485 1.78622 -3.39909e-21)
(-0.00699905 1.78568 1.58981e-20)
(-0.00443141 1.78721 -3.06608e-20)
(-0.00467336 1.78714 3.55603e-20)
(-0.00396058 1.7877 3.82583e-22)
(-0.00755822 1.77537 3.01462e-20)
(0.0458583 1.68808 -2.20785e-19)
(0.0258332 1.78133 -9.92777e-23)
(0.549686 1.3293 -5.36672e-19)
(0.317763 1.5404 -2.37196e-19)
(0.418074 1.46353 0)
(0.474082 1.63764 2.16233e-19)
(0.509986 1.5301 2.94477e-19)
(0.220637 1.6918 5.58999e-20)
(0.237321 1.7046 -6.76923e-19)
(0.319827 1.7516 5.67668e-19)
(0.369624 1.66839 0)
(0.270123 1.68579 -4.49918e-19)
(0.0957023 1.73572 8.45346e-19)
(0.151163 1.7242 -4.84544e-20)
(0.099163 1.73854 -1.14283e-18)
(0.869472 2.04912 2.87911e-19)
(0.651035 1.64878 0)
(1.02516 -0.0130324 1.02523e-20)
(1.01258 -0.0207442 -8.16717e-21)
(1.01963 -0.007055 -1.46911e-19)
(1.03408 -0.00467771 1.4865e-19)
(1.03398 -0.00901814 0)
(0.577353 0.977712 0)
(0.716177 0.860472 0)
(0.730192 1.03535 0)
(0.731458 0.853748 0)
(1.17061 2.72552 -5.7285e-20)
(0.963631 2.43774 0)
(0.727563 2.76785 -8.15774e-21)
(0.465003 2.6004 0)
(0.645284 2.73212 -1.33668e-20)
(0.723054 2.72702 8.36373e-21)
(0.837594 0.146235 0)
(0.815457 0.150092 8.50943e-20)
(0.890918 0.11955 4.37169e-19)
(0.846402 0.11989 -1.70538e-19)
(0.836523 0.0843417 -5.31348e-19)
(1.00511 0.194203 -2.80435e-19)
(0.911651 0.275116 -1.53274e-20)
(0.881411 0.261001 4.04378e-19)
(0.93887 0.169536 3.00406e-19)
(0.921282 0.148091 -5.52009e-19)
(0.905814 0.149835 7.14687e-20)
(0.934847 0.20854 -1.4175e-19)
(0.909987 0.172331 0)
(0.969146 0.13794 2.61167e-19)
(0.98779 0.143855 0)
(0.980653 0.163289 0)
(1.04364 0.106108 8.79549e-20)
(1.01008 0.145731 -1.30326e-20)
(1.00296 0.204441 -4.85699e-20)
(1.05628 0.184167 0)
(1.00364 0.02559 2.24246e-19)
(1.00362 0.0319823 2.70044e-19)
(1.00762 0.0284249 -2.21692e-19)
(1.00977 0.0433669 -1.82229e-19)
(1.00197 0.0532557 -3.09385e-19)
(0.945631 0.118505 0)
(0.973185 0.091486 0)
(0.953175 0.0366877 -2.06206e-19)
(0.918376 0.0506621 8.84423e-20)
(1.00664 0.0885371 2.59315e-19)
(1.00444 0.108949 -2.69631e-19)
(1.01387 0.136258 2.46739e-19)
(1.00747 0.131478 0)
(1.01563 0.0876059 0)
(1.00277 0.0713923 -1.13278e-19)
(1.00897 0.0786314 -2.07979e-19)
(0.97638 1.19967 -4.05938e-19)
(0.98269 1.71559 4.11544e-19)
(1.27321 2.78288 1.41242e-19)
(1.27529 3.073 -5.93457e-20)
(1.25787 2.78249 3.66024e-19)
(1.31586 2.72161 -2.57384e-19)
(1.20781 2.37596 2.46377e-20)
(1.26743 3.00353 1.87922e-19)
(1.26789 3.00042 -2.3408e-19)
(1.24805 3.22411 -2.35219e-19)
(1.39836 2.94881 3.24903e-19)
(1.38806 2.86381 0)
(0.544279 0.870813 -1.80692e-20)
(0.13403 1.3524 3.20723e-19)
(0.514798 0.551052 3.7289e-19)
(0.320519 0.344827 3.94319e-19)
(0.566216 0.444091 4.21309e-19)
(0.5383 0.497562 -6.82912e-19)
(0.537458 0.51301 5.56983e-19)
(0.510977 0.489632 -2.20668e-19)
(0.487887 0.414999 5.09241e-19)
(0.803367 0.24408 -1.92473e-19)
(0.762006 0.293048 0)
(0.773615 0.259709 1.19633e-20)
(0.659201 0.509697 1.98753e-19)
(0.652915 0.483403 -7.26248e-19)
(0.582932 0.507711 1.59998e-20)
(0.614295 0.460319 0)
(0.628777 0.754236 1.73056e-19)
(0.821742 0.715622 4.23653e-20)
(0.751143 0.833033 -6.0947e-20)
(0.850968 0.733505 -1.56899e-20)
(0.901962 0.796712 1.48113e-20)
(0.908129 0.78982 -1.5196e-20)
(0.776932 0.621911 -2.33587e-19)
(0.876819 0.700523 1.45451e-20)
(0.950431 0.689088 0)
(0.930859 0.658998 -1.93918e-20)
(0.943317 0.29795 6.85062e-20)
(1.06632 0.269903 2.13952e-20)
(0.988168 0.230773 1.15188e-19)
(0.930579 0.332723 -1.52312e-19)
(0.982077 0.401029 0)
(1.03668 0.393629 0)
(0.831223 0.33995 4.06929e-21)
(0.84052 0.280192 0)
(0.854276 0.254967 2.02065e-19)
(0.848388 0.265254 -3.37859e-21)
(0.868208 0.407081 8.23537e-19)
(0.831959 0.47934 2.06695e-19)
(0.830718 0.435573 -2.69039e-19)
(0.756241 0.431451 2.8991e-19)
(0.745292 0.427824 1.91553e-19)
(0.723721 0.415489 -1.88224e-19)
(1.01894 0.0144481 2.37375e-19)
(1.02618 0.00563872 0)
(1.02947 0.00694546 1.61265e-19)
(1.01752 0.013558 -3.58576e-19)
(1.02551 0.00580891 1.78396e-19)
(1.02583 0.00324907 -3.66309e-19)
(1.02279 -0.00192783 0)
(1.02238 -0.00299987 -7.57979e-20)
(1.02814 0.0012929 1.88271e-19)
(1.02228 0.00337106 -9.99212e-20)
(1.02341 0.00124678 7.33785e-20)
(-0.0179176 1.79388 0)
(-0.0126655 1.78774 0)
(0.00568082 1.80438 0)
(-0.00983779 1.79781 0)
(0.0334966 1.80517 4.98194e-20)
(0.0275386 1.81114 -1.27573e-20)
(0.0368023 1.79858 -4.01383e-20)
(0.0312918 1.81421 -1.42467e-20)
(0.023261 1.80297 -6.9861e-20)
(0.0237154 1.80418 5.07681e-20)
(0.0362353 1.81061 -2.31144e-20)
(0.0245062 1.82098 -7.47883e-21)
(0.0115774 1.80438 -5.71933e-22)
(-0.000255178 1.797 -7.41618e-21)
(0.0237581 1.77281 -2.03051e-19)
(0.0277467 1.76543 0)
(0.0440694 1.75865 1.21679e-19)
(0.0447078 1.78714 8.09726e-20)
(0.0896494 1.77508 -9.16874e-20)
(0.107085 1.74052 0)
(0.113738 1.73109 -6.37634e-19)
(0.152568 1.76972 4.44529e-19)
(0.0841775 1.77259 -2.38997e-19)
(0.0583891 1.75737 1.32214e-19)
(0.0355112 1.73989 0)
(0.00572163 1.78538 -1.48177e-19)
(0.000137391 1.78115 -1.75467e-19)
(0.00140872 1.78773 0)
(0.00944506 1.78543 -4.57237e-21)
(0.0160093 1.78768 7.39654e-20)
(-0.0127427 1.78122 7.43682e-21)
(-0.0104951 1.78551 -1.22736e-19)
(-0.00843851 1.77812 3.2059e-20)
(-0.0117339 1.76821 4.40553e-20)
(-0.010916 1.77597 0)
(-0.00767666 1.77942 0)
(-0.0029908 1.79395 3.00834e-20)
(-0.00140558 1.78579 -9.5838e-21)
(-0.00436457 1.78314 0)
(-0.00695959 1.79545 2.39856e-20)
(-0.00525227 1.79447 -4.66932e-20)
(1.01527 0.0130734 0)
(1.0172 0.0129933 -2.3934e-20)
(1.01213 0.0163141 -1.76108e-19)
(1.01505 0.0234875 0)
(1.0148 0.0259525 0)
(1.01558 0.0069606 -4.98006e-21)
(1.01774 0.0063283 2.85161e-19)
(1.01639 0.00728815 3.45705e-19)
(1.01766 0.00700328 0)
(1.01735 0.00688116 0)
(1.01384 0.0128632 1.75634e-19)
(1.01397 0.00944471 0)
(1.01802 0.00904296 0)
(-0.0113545 1.77368 0)
(-0.00914857 1.76821 3.46968e-21)
(-0.00817132 1.76624 1.66342e-20)
(-0.00468364 1.78523 0)
(-0.00721423 1.77755 2.22595e-20)
(-0.00574363 1.78617 -9.99486e-21)
(-0.00358265 1.7897 0)
(0.0545784 2.17296 0)
(-0.0432776 1.82478 1.86095e-20)
(0.000947207 1.93822 0)
(-0.0375232 1.74769 -2.17487e-19)
(0.108861 1.41576 0)
(0.0559046 1.6206 1.50724e-19)
(0.951319 2.83338 -2.57027e-21)
(0.868456 2.22847 -3.70729e-19)
(0.934279 2.08407 -3.98434e-19)
(0.681282 1.7572 2.29868e-19)
(0.552381 2.36187 0)
(0.62646 2.48701 0)
(0.843547 1.98502 0)
(0.807489 1.73247 -7.32675e-19)
(0.294907 2.42998 -3.74131e-19)
(0.470446 2.37973 -1.10148e-19)
(0.405814 2.56116 8.23039e-20)
(0.540558 1.5778 0)
(0.61787 1.61561 0)
(0.594997 1.53185 -3.32342e-19)
(0.489774 2.10688 0)
(0.812597 0.932639 0)
(0.609428 0.989487 -4.94573e-21)
(0.641928 0.916649 -2.89669e-21)
(0.908379 0.97455 0)
(0.773178 1.09009 3.83031e-20)
(0.779914 0.890605 2.59699e-20)
(0.795628 0.963002 0)
(0.768878 0.921385 -7.98882e-20)
(0.717641 1.02762 0)
(0.680462 0.945081 0)
(1.16549 2.92238 1.08476e-19)
(1.19893 2.92947 2.80186e-19)
(1.0748 2.62207 -6.54043e-19)
(1.01681 2.64349 1.27844e-19)
(1.10274 2.89354 0)
(1.00546 2.90129 -1.43252e-19)
(1.01583 2.60488 8.59588e-20)
(0.873373 2.34659 -1.04047e-20)
(0.473812 2.13433 0)
(0.609639 1.08507 3.58736e-19)
(0.6136 1.07889 0)
(0.866993 0.191637 0)
(0.828049 0.176018 0)
(0.775624 0.190734 0)
(0.871511 0.209371 -3.1586e-19)
(0.817028 0.217981 1.98535e-19)
(0.917379 0.0507505 -1.82208e-19)
(0.909993 0.0940756 0)
(0.886115 0.106379 8.27451e-20)
(0.875113 0.0707803 3.36505e-19)
(0.886161 0.0504867 -2.07072e-19)
(1.17375 3.33561 -9.01036e-19)
(1.23267 3.25717 0)
(1.16347 3.36823 -1.8475e-18)
(0.643715 3.53489 1.57e-18)
(0.86197 3.09744 2.78961e-19)
(0.5117 0.981343 3.64758e-19)
(0.478773 1.00827 0)
(0.322701 0.579689 -8.91954e-20)
(0.383052 0.733146 4.33509e-19)
(0.495728 0.530509 -1.16496e-19)
(0.48583 0.55652 1.35326e-19)
(0.605574 0.506908 2.83569e-19)
(0.63164 0.525831 0)
(0.590298 0.6159 0)
(0.550131 0.56479 0)
(0.929032 0.577791 -4.62688e-20)
(0.829462 0.522802 -1.99463e-19)
(0.852994 0.568905 9.63408e-20)
(0.885606 0.493384 -1.50427e-19)
(1.00699 0.459579 0)
(0.991557 0.539792 -9.88246e-21)
(0.78128 0.386992 -4.26698e-19)
(0.787238 0.374471 -4.90946e-19)
(0.75633 0.388147 3.3442e-19)
(0.74841 0.365475 -3.69408e-19)
(0.819544 0.313805 -2.7045e-19)
(0.781108 0.318912 3.32143e-19)
(1.02243 0.00757424 -1.87775e-19)
(1.02167 0.00521394 3.86332e-19)
(1.01983 0.0137955 2.23895e-19)
(1.01878 0.0115451 -2.67097e-19)
(1.01143 0.0137176 0)
(1.01789 0.00641214 -4.47024e-19)
(0.0370695 1.79474 2.84928e-20)
(0.0359837 1.79569 0)
(0.038513 1.78423 2.5486e-19)
(0.0400758 1.78904 -2.39524e-19)
(0.0354852 1.79223 7.19885e-20)
(0.0390624 1.79354 0)
(-0.00951572 1.77405 0)
(-0.00848643 1.77484 -1.22101e-20)
(-0.00931443 1.77537 1.0709e-20)
(-0.00879343 1.77541 2.48795e-21)
(-0.0113488 1.77472 -2.14468e-20)
(-0.00985295 1.77509 1.26401e-20)
(0.23638 2.0909 6.42803e-19)
(0.0609414 2.10589 -6.94458e-19)
(-0.0325907 1.73887 4.30244e-19)
(-0.0193449 2.12042 -2.02231e-20)
(0.434627 1.04175 0)
(0.190774 1.30288 4.98554e-19)
(0.284436 1.13303 -4.8528e-19)
(-0.0030707 1.3719 -4.22897e-19)
(0.174426 1.38004 0)
(0.424962 1.03448 0)
(0.283978 2.3217 5.59405e-19)
(0.468876 1.91078 1.38918e-18)
(0.492717 2.04591 -8.86872e-19)
(0.461442 1.85196 -1.82228e-19)
(0.27481 2.05698 2.7719e-19)
(0.325435 1.78647 -7.14219e-19)
(0.864594 2.40889 2.50087e-19)
(0.917036 2.54422 0)
(0.884052 2.27954 4.25143e-19)
(0.997724 2.87925 0)
(1.00251 2.84254 0)
(0.596522 2.24934 7.70061e-20)
(1.06918 3.09185 3.53015e-19)
(0.928403 2.97272 -2.54564e-19)
(0.240689 1.01308 0)
(0.265725 0.857638 -2.03302e-19)
(0.493081 0.864028 -1.69434e-19)
(0.294467 2.03924 0)
(0.43359 2.78293 -1.9509e-19)
(0.392224 2.57059 0)
(0.672487 0.676427 -3.54138e-19)
(0.717847 0.656931 4.2811e-19)
(0.739624 0.594722 -4.14225e-19)
(0.612385 0.637468 -5.11979e-20)
(0.67715 0.577304 -2.07987e-19)
(1.03724 2.73763 -2.67506e-19)
(1.07181 2.73305 2.10531e-19)
(0.593063 2.11836 3.14119e-19)
(0.64317 1.72287 -2.39075e-19)
(0.977564 1.85373 6.47775e-20)
(1.09881 2.40807 -3.47794e-20)
(1.10845 2.39375 -1.67264e-19)
(0.728411 1.84725 1.43485e-21)
(0.75621 1.31111 -7.37958e-20)
)
;

boundaryField
{
    wall-4
    {
        type            noSlip;
    }
    velocity-inlet-5
    {
        type            fixedValue;
        value           uniform (1 0 0);
    }
    velocity-inlet-6
    {
        type            fixedValue;
        value           uniform (0 3 0);
    }
    pressure-outlet-7
    {
        type            zeroGradient;
    }
    wall-8
    {
        type            noSlip;
    }
    frontAndBackPlanes
    {
        type            empty;
    }
}


// ************************************************************************* //
