/*--------------------------------*- C++ -*----------------------------------*\
  =========                 |
  \\      /  F ield         | OpenFOAM: The Open Source CFD Toolbox
   \\    /   O peration     | Website:  https://openfoam.org
    \\  /    A nd           | Version:  9
     \\/     M anipulation  |
\*---------------------------------------------------------------------------*/
FoamFile
{
    format      ascii;
    class       volScalarField;
    location    "3";
    object      p;
}
// * * * * * * * * * * * * * * * * * * * * * * * * * * * * * * * * * * * * * //

dimensions      [0 2 -2 0 0 0 0];

internalField   nonuniform List<scalar> 
918
(
0.528019
0.820368
0.0199826
0.513217
0.00109037
0.785027
-0.760669
0.422887
0.503374
-0.108335
0.0152487
0.440415
0.653526
0.405703
-1.33505
0.0306063
0.536994
-0.838728
0.451977
0.0111567
0.511016
0.538878
0.514665
0.44459
0.485368
0.517841
0.526879
0.00839107
0.00107996
0.00570811
0.0173165
0.00857469
0.012273
0.668724
0.719919
0.74385
0.436392
0.110979
-0.470655
-0.571137
-0.547391
-0.872677
0.442855
0.464123
-0.22322
0.392151
0.377724
0.454162
0.497361
0.50296
0.504684
0.503711
0.519483
0.273286
-0.133707
-0.208905
-0.0746171
-0.0476366
0.0798616
0.0147562
0.0239626
0.0273802
0.0180859
0.393967
0.438764
0.439995
0.450197
0.447659
0.759536
0.729635
0.755585
0.678646
0.690422
0.629236
0.590551
0.411293
0.442497
0.386165
0.386336
-1.63021
-2.25328
-0.932718
-0.701532
0.00185702
0.0310485
0.0346495
0.532461
0.546924
0.525161
0.530962
0.658126
-0.705161
-0.932738
0.466397
0.46325
0.515967
0.494797
0.483223
0.457696
0.0111292
0.0128851
0.0110788
0.0176511
0.0062335
0.334335
0.323616
0.422865
0.454327
0.445361
0.463979
0.455765
0.237202
0.497555
0.507694
0.172044
0.384313
0.439744
0.412695
0.48843
0.443926
0.559262
0.575425
0.0077552
0.00461601
0.0138695
0.00633999
0.00776633
0.431806
0.422703
0.453569
0.434301
0.450204
0.00879956
-0.127811
0.225502
0.396381
-0.276376
-0.380658
-0.765704
-0.680366
-0.963627
0.757813
0.470617
0.493102
-0.1714
-0.145854
-0.2797
-0.0602053
-0.153029
0.459602
0.451392
0.446746
0.456815
0.453838
0.462212
0.505652
0.504735
0.504611
0.29087
0.355599
0.245704
0.205301
-0.465768
-0.243287
-0.441994
-0.0252281
-0.0191131
0.0871484
0.106574
0.0780544
0.0635239
-0.0117642
0.0213519
0.0154807
0.0247814
0.024115
0.394137
0.376942
0.397328
0.406023
0.444416
0.437373
0.436354
0.439057
0.555178
0.569832
0.579053
0.549965
-2.83226
-4.74204
-0.466279
-0.291004
0.0118494
0.00877294
0.00259044
0.00723342
0.00372658
0.00196211
0.0471393
0.0597633
0.0224012
0.0382158
0.531244
0.538308
0.647373
0.698804
0.584558
0.588894
0.455802
0.461793
0.466851
0.461317
0.018048
0.00901699
0.0135847
0.351419
0.307451
0.334915
0.209263
0.123809
0.277469
0.306151
0.524219
0.519929
0.535672
0.263291
0.280936
0.584599
0.622007
0.592211
0.611464
0.663534
0.682997
0.657444
0.403504
0.425919
0.422454
0.451629
0.449565
0.455158
0.450178
0.443771
0.442815
-0.197993
-0.485286
0.683695
0.610889
0.469293
0.577039
0.729523
0.763455
0.517292
0.492375
0.51437
-0.0293716
-0.0829016
0.196346
0.171374
0.338352
0.357602
0.34582
0.525045
0.453082
0.528364
0.495254
0.442341
0.480481
-0.464178
-1.37743
-0.822505
0.114884
-0.124788
0.00834128
0.0588672
0.0469282
0.0515591
0.680021
0.732796
0.387349
0.495485
0.484805
0.374588
0.373969
0.449509
0.372834
0.410528
0.438238
0.399117
0.717362
0.686301
0.741672
0.733429
0.761054
0.0905339
0.0358215
-0.00753153
0.123111
0.140839
0.134181
0.704665
0.722328
0.751974
0.43255
0.458783
0.0151486
0.0226158
0.493232
0.501362
0.00661276
0.00620196
-0.12693
-1.20963
0.146007
0.470834
0.462146
0.483253
-0.0908084
0.251336
0.0245659
0.095216
0.0677353
0.43946
0.406521
0.365847
0.0201974
0.0161706
0.01268
-0.318939
0.485165
0.459938
0.487613
0.484371
0.490961
0.0123525
0.014229
0.0209776
0.00548838
0.0183324
0.032106
0.436615
0.439581
-0.158032
0.480054
0.482091
0.489533
0.473919
0.487193
0.474583
0.0153295
0.0112592
0.0116173
0.186836
0.305662
0.223152
0.502405
-0.0371519
-0.202616
-0.419987
0.100297
0.217975
0.02951
0.327059
0.449025
0.381297
0.20087
0.0738654
0.181969
0.111015
0.465279
0.468422
0.45323
0.457922
0.473066
0.460688
0.484481
0.469244
0.481866
0.492029
-0.0176281
-0.0530191
-0.0922962
-0.148467
0.275496
0.366885
0.207781
0.234188
0.141513
0.0295656
0.0387415
0.0307934
0.0271438
0.0724881
0.070752
0.0740194
0.0810177
0.0505567
0.0459557
0.0736934
0.0542763
0.0620079
0.434584
0.434162
0.435226
0.460912
0.418871
0.407527
0.386659
0.402692
0.404158
0.351082
0.363541
0.353568
0.0175195
0.0232027
0.0133282
0.0361914
0.0207138
0.00948005
0.00793754
-0.0196732
-0.000604829
0.0142092
0.0178028
0.0157386
-0.233221
-0.399395
0.607156
0.528256
0.300512
0.470312
0.470621
0.457424
0.467518
0.49138
0.494157
0.4864
0.455676
0.44659
0.448499
0.438971
0.451021
-0.0855634
-0.267213
-0.0330046
-0.137026
0.106364
0.500739
0.307603
0.278621
0.265654
0.419171
-0.42854
-0.208467
0.459866
0.547601
-0.905192
-0.575504
-0.796625
-0.522991
-0.540971
0.274649
0.336885
0.345837
0.301206
0.206254
-0.301952
0.324883
-0.0144766
0.0287098
0.274424
0.139901
0.127071
0.468452
0.48675
0.352311
0.334422
0.420119
0.396085
0.407371
0.403199
0.427593
0.375931
0.218217
0.205927
0.172115
0.500214
0.394208
0.422021
0.37897
0.464719
0.468205
0.461309
0.452377
0.449404
0.440306
0.45275
0.448869
0.458602
0.466034
0.456775
0.461229
-0.0237329
-0.0111365
-0.0591892
-0.189696
-0.159895
-0.250687
-0.0947766
0.102271
0.0424082
0.255826
0.349885
0.0820959
-0.0929978
-0.0436656
0.0315265
0.168107
0.146517
0.103171
0.163882
0.173039
0.136662
0.207037
0.194047
0.0452522
0.0605118
0.0365101
0.0395217
0.103489
0.115766
0.122317
0.0656525
0.0780422
0.0278544
0.0300724
0.0876672
0.0692501
0.083458
0.0695908
0.0231908
0.0336871
0.0435214
0.0423149
0.0690209
0.0507966
0.440889
0.441322
0.440385
0.430747
0.452377
0.460585
0.421175
0.430196
0.426849
0.43097
0.397103
0.39943
0.399159
0.40839
0.418827
0.424944
0.447455
0.444332
0.417968
0.42014
0.398785
0.405781
0.386516
0.378928
0.375595
0.0298365
0.0107218
0.0141666
0.0269942
0.0192122
0.0199099
0.0467889
0.0493778
0.0601589
0.0319639
0.0557639
-0.00907762
0.0141258
-0.0615716
0.0536112
-0.224016
-0.288775
-0.361351
0.593561
0.651313
0.5202
0.442848
0.471756
0.547967
0.578872
0.387488
0.456497
0.442101
0.684727
0.674518
0.435949
0.428603
0.457048
0.44301
0.451344
0.0580542
0.215442
0.215832
0.331378
0.297286
0.294476
0.440621
0.424829
0.513342
0.487825
0.494683
0.50791
0.470016
0.49132
0.502216
0.351024
0.431029
0.450328
0.444703
0.442917
0.455378
0.442738
0.444173
0.425549
0.415337
0.418428
0.35944
0.380717
0.367506
0.369716
0.418862
0.413822
0.415252
0.409706
0.433606
0.445001
0.448069
0.467016
0.458767
0.399083
0.37105
0.384384
0.407659
0.38013
0.38702
0.391978
0.439044
0.497556
0.368145
-0.0857277
-0.013986
-0.175871
-0.165422
0.00138876
0.274811
-0.304279
-0.402275
-0.770009
0.390724
-0.575558
-0.161425
-0.287713
0.299142
0.268571
0.196248
0.204335
0.276459
0.483888
0.49201
0.501811
0.388455
0.382464
0.307293
0.352338
0.425112
0.410413
0.42828
0.385674
0.267659
0.321062
0.391236
0.366347
0.291712
0.290694
0.385482
0.290753
0.316684
0.379997
0.332125
0.321967
0.412951
0.468515
0.462404
0.43692
0.381355
0.393624
0.396307
0.422833
0.428373
0.425892
0.451354
0.449989
0.444709
0.453796
0.453587
0.451019
0.440746
0.458472
0.460751
0.475597
0.466734
0.0259069
0.0361099
0.0024507
-0.0061911
0.052635
0.0299994
-0.0184617
-0.0239183
0.0574234
0.0531742
0.0185751
-0.00856345
0.0220588
0.0475953
0.158815
0.181213
0.17892
0.121742
0.262944
0.320915
0.375418
0.33491
0.217341
0.230166
0.242379
0.0920731
0.090751
0.0817284
0.103281
0.104469
0.0124989
0.00856944
0.0132808
0.0547852
0.0335359
0.00665169
0.0213855
0.0221209
0.0183941
0.022567
0.0207882
0.433677
0.413875
0.390825
0.380994
0.391964
0.407152
0.430298
0.435789
0.445815
0.437442
0.433079
0.431918
0.440951
0.00731857
0.016888
0.000105874
0.0235174
0.0336892
0.0111692
0.0225048
0.294589
0.167488
0.249335
0.0930331
-0.139508
-0.0345773
0.520839
0.637604
0.668098
0.646318
0.588647
0.589585
0.651314
0.678766
0.407181
0.533922
0.465991
0.642275
0.635359
0.672051
0.547284
0.443412
0.506368
0.58226
0.466554
0.449721
0.413007
0.333321
0.345164
0.410137
0.516265
0.392985
0.416886
0.452922
0.442708
0.419457
0.477003
0.417993
0.504299
0.368581
0.37797
0.3018
0.474074
0.496793
0.51406
0.479769
0.498945
0.472569
0.475055
0.480173
0.491396
0.490285
-0.565714
-0.330806
-1.28198
-1.17616
-0.728026
0.300288
0.403381
-0.123495
0.213494
-0.0503017
0.136992
0.303642
0.344511
0.310959
0.257402
0.341454
0.395148
0.392599
0.387151
0.291352
0.255688
0.442423
0.446362
0.437764
0.455655
0.453452
0.461827
0.433662
0.44784
0.439263
0.442031
0.439338
0.438364
0.113934
0.0886161
0.128323
0.100298
0.0670042
0.0870282
0.018402
-0.00725812
0.0136999
0.0362546
0.0162704
0.0383912
0.336288
0.338611
0.140848
0.251571
0.067745
-0.0453299
-0.0699203
0.0926313
0.191677
0.216374
0.449935
0.561005
0.5064
0.516626
0.42919
0.463303
0.61869
0.541503
0.609333
0.53608
0.546661
-0.017846
-0.227582
-0.320664
-0.642035
-0.313744
0.00549597
-0.130893
-0.452862
-0.538773
0.403024
0.396714
0.368244
0.35214
0.352692
0.0387641
0.0835758
0.254348
0.585098
0.451238
0.303945
0.377782
0.512036
0.541124
)
;

boundaryField
{
    wall-4
    {
        type            zeroGradient;
    }
    velocity-inlet-5
    {
        type            zeroGradient;
    }
    velocity-inlet-6
    {
        type            zeroGradient;
    }
    pressure-outlet-7
    {
        type            fixedValue;
        value           uniform 0;
    }
    wall-8
    {
        type            zeroGradient;
    }
    frontAndBackPlanes
    {
        type            empty;
    }
}


// ************************************************************************* //
