/*--------------------------------*- C++ -*----------------------------------*\
  =========                 |
  \\      /  F ield         | OpenFOAM: The Open Source CFD Toolbox
   \\    /   O peration     | Website:  https://openfoam.org
    \\  /    A nd           | Version:  9
     \\/     M anipulation  |
\*---------------------------------------------------------------------------*/
FoamFile
{
    format      ascii;
    class       surfaceScalarField;
    location    "3";
    object      phi;
}
// * * * * * * * * * * * * * * * * * * * * * * * * * * * * * * * * * * * * * //

dimensions      [0 3 -1 0 0 0 0];

internalField   nonuniform List<scalar> 
1300
(
3.75095
5.62643
-6.50212
3.75095
-6.41643
5.62643
-6.03274
6.03274
-1.6789
1.6789
1.88282
1.86813
-5.75063
5.75063
-5.55799
5.55799
-3.03771
3.03771
-5.23836
5.23836
-5.15661
5.15661
4.46528
-4.46528
-5.25555
5.25555
-2.18673
2.18673
-6.23478
6.23478
3.15672
-3.15672
-5.58136
5.58136
-0.933308
0.933308
-0.56776
4.31871
3.18319
3.18319
-2.792
2.792
-4.86824
4.86824
6.2247
-6.2247
9.75549
-9.75549
-3.25337
-3.2727
1.3381
-8.02968
-5.07833
-5.07833
-8.44092
8.44092
-2.81449
2.81194
3.1786
-3.1786
-1.72771
1.72771
-5.7206
-0.312145
-5.7206
6.33693
-0.304184
6.33693
-1.79083
0.111931
-1.79083
4.55394
-4.55394
1.52977
0.149126
1.52977
3.17046
-3.17046
-1.88607
3.76889
1.86488
-1.83503
6.15375
-1.91592
3.78405
-4.93511
4.93511
-5.8411
0.09047
-5.8411
5.65349
0.0971437
5.65349
-5.45874
5.45874
-5.5671
0.00910175
-5.5671
5.57158
-0.0135822
5.57158
3.2257
-3.2257
-3.06489
0.0271858
-3.06489
3.04001
-0.0023021
3.04001
0.357849
5.26858
-5.98428
8.79622
-5.26858
0.0302202
5.20752
0.0308445
5.20752
-5.1776
0.020987
-5.1776
5.09838
0.0582306
5.09838
4.29226
0.173026
4.29226
-4.73014
0.264861
-4.73015
-3.27396
-3.28975
-5.35552
0.0999703
-5.35552
-2.21168
0.0249524
-2.21168
2.12075
0.0659853
2.12075
-3.85041
3.85041
-6.52704
0.292254
-6.52704
3.09165
0.0650703
3.09165
1.86209
1.88886
5.61305
-5.61305
2.45632
-5.60035
0.0189927
-5.60035
-5.55961
-4.19588
5.55961
0.0217478
-1.26919
0.335885
-1.26919
3.17728
0.00591563
3.17728
2.97142
0.0685852
-2.97142
0.179427
3.65532
-3.65532
2.15532
0.63668
2.15532
-5.51614
5.51614
5.01236
0.0860193
-5.01236
0.144116
6.14265
0.0820459
6.14265
-6.21253
-0.0121674
-6.21253
3.35932
-6.63202
-3.27146
5.15006
0.105485
-5.15006
0.0717328
3.21297
-0.0343787
3.21297
-3.13055
3.13055
-3.18263
0.00403007
-3.18263
-1.67967
-0.0480441
-1.67967
2.01563
-0.287914
2.01563
-5.19001
-0.530585
-5.19001
-6.53501
0.00797168
6.53501
-0.198078
3.00144
-3.00144
-1.9236
0.132769
-1.9236
-4.81586
-0.374158
4.81586
-0.261917
-4.27072
-0.283215
-4.27072
-3.17231
-0.0103124
3.17231
-0.00185283
3.14791
0.0293656
-3.14791
-0.0225491
-1.87442
3.76328
-1.87653
3.74141
-4.78907
-0.14604
-4.78907
5.04971
-0.114593
5.04971
6.03779
0.196993
-6.03779
0.196685
5.61777
0.0357207
5.61777
-5.38732
-0.0714143
-5.38732
5.50013
-0.0413975
5.50013
5.61955
-0.00178386
-5.61955
0.0524576
5.55646
0.015112
5.55646
3.30767
-0.0819636
3.30767
-3.20616
-0.0195485
-3.20616
3.14783
-3.14783
3.0941
0.053735
-3.0941
0.0292087
-11.1024
11.0902
-0.0167137
-11.0857
5.1908
5.1908
3.29258
0.999679
3.29258
-4.98953
0.25938
-4.98953
3.29095
-6.5624
3.26335
-6.53731
3.34742
-11.3771
3.28094
-6.5707
5.46335
-5.46335
5.43507
0.0282815
-5.43507
0.0795504
-2.18766
-0.0240276
-2.18766
-3.72008
-0.130331
-3.72008
4.13101
-0.280602
4.13101
-3.16762
3.16762
-3.12899
-0.038637
3.12899
-0.0373347
5.57287
-0.0164078
-5.57287
-0.0274827
1.40566
0.124114
-1.40566
0.136464
3.82075
-0.165431
3.82075
-3.48585
-0.169473
-3.48585
-2.18899
0.00133038
2.18899
-0.0336703
-5.76372
0.24758
-5.76372
-11.1792
0.093493
-11.1483
-6.11904
-6.11904
2.32188
11.1181
-3.18877
-0.0173852
3.18877
0.0242039
3.15218
0.0154383
-3.15218
0.0216297
-3.13969
-0.0081407
3.13969
-0.00913981
-1.80754
0.127875
-1.80754
-2.60522
2.60522
-2.33186
-0.273353
2.33186
-0.316238
3.0798
-0.0783605
3.0798
2.06732
0.0534302
-2.06732
0.143719
-4.11038
-0.160346
-4.11038
5.23492
-0.185212
5.23492
-3.36576
-0.12009
3.36576
-0.0580909
-0.00627095
11.0965
-5.18453
0.00693457
5.18453
-11.1785
11.1855
-2.35128
0.543734
2.35128
0.941302
5.24792
0.268224
-5.24792
0.258393
5.5406
-0.0404617
-5.5406
0.0772467
-3.57354
-0.146536
-3.57354
-4.46768
-0.32139
4.46768
-0.336671
-11.4233
-0.220292
11.6436
-11.3651
5.98401
0.15864
-5.98401
11.3441
-2.83326
-0.168181
2.83326
-0.22804
3.25424
-0.174443
3.25424
3.99853
-0.177778
-3.99853
-0.111846
-5.33518
-0.052146
5.33518
-0.100257
-3.42387
-0.149671
3.42387
-0.169631
-4.15932
4.16523
1.99443
-3.3352
-3.29682
-7.53108
1.77797
1.98531
4.2343
-6.99515
-4.38195
-6.92342
7.32128
-7.06289
-8.83696
9.00998
7.26247
-7.54569
-5.83826
5.80092
6.37186
-6.37371
1.84184
1.92705
10.7317
-10.6412
-10.0804
9.93439
10.1659
-10.1568
10.4855
-10.5569
-12.1777
12.1372
-5.6594
5.68659
-6.60752
6.58797
-6.65794
6.59985
-3.31451
-3.2228
9.01359
-8.91362
11.6575
-11.6385
-11.2652
11.5575
3.29183
0.873406
3.32119
-1.9305
3.77233
-1.85356
3.84799
3.26739
-6.5819
3.29501
-6.59183
5.96687
5.69061
-5.98862
-1.54246
-5.89438
5.86001
-5.80232
5.79318
10.4558
-10.7679
-1.86495
3.792
-1.87646
3.86178
-3.38095
-2.45731
3.31588
0.918418
5.52253
3.49106
-5.62801
-1.29541
-7.55861
7.38084
-7.73829
7.56882
-0.591341
5.91801
-5.32667
4.2769
-1.62271
7.54073
5.69857
5.95795
5.90524
-5.63701
1.15765
-6.48432
-6.3402
-2.57417
2.70694
2.57945
-2.43032
6.05075
1.21172
5.78883
-5.39043
-2.15526
-5.55078
3.85659
1.94433
3.81796
4.08359
2.28827
4.07328
3.05021
-3.06488
0.0146699
-3.05001
6.10022
0.727122
-5.50732
-4.5889
6.96928
3.76241
7.06643
-7.28416
-3.35706
-7.08747
-6.04545
-4.03498
-6.36684
6.45218
3.48221
6.33759
-7.82909
7.72883
6.72131
3.44464
6.70772
-6.83101
-3.32583
-6.77856
10.1966
-2.66018
-7.53639
-6.78396
-5.39369
6.82536
3.66016
7.40232
4.73487
7.47957
3.52841
6.66816
-7.18858
1.79489
-3.79611
-1.8633
-3.7669
3.62749
2.0591
3.62518
-4.18808
-2.41944
-4.20547
-4.1878
-2.47015
4.26976
2.31821
-4.26045
-3.47784
4.38054
2.21931
2.94428
-7.32622
3.62642
-6.84922
-6.29215
-2.62148
-6.2126
3.99795
2.52814
-6.52609
-2.58395
10.7182
-5.02763
9.17578
-7.23182
-4.40667
-7.2593
-8.69103
-2.5742
-8.68306
-5.36775
5.22121
-5.50337
5.22277
10.434
-5.7803
-4.65375
-3.90334
-2.47037
3.92589
-0.604697
-3.76772
3.78239
0.00461488
3.8526
4.72601
4.12131
-3.84678
-1.95554
-3.82515
3.83179
1.9614
3.82365
8.50866
1.94711
8.20448
-7.07371
-3.69421
-7.60429
6.0714
-6.11944
3.00102
-2.99969
5.09723
2.47158
-4.9318
-2.62681
5.89401
-2.96768
-2.92634
-12.8612
10.7645
2.09668
-5.32048
-1.04358
-0.110273
-5.43996
-3.397
5.1751
0.782848
11.5474
8.15038
-5.5222
5.76978
6.12142
6.20744
-0.132764
4.32692
-3.78318
3.29856
-0.652973
-2.64558
5.6207
-5.99486
-1.98359
-5.37756
3.39397
-0.206028
2.25129
-1.91541
-2.0826
-0.491574
-1.93888
1.66054
0.918911
1.78465
0.936916
1.77003
-2.74809
0.548364
2.19973
-1.81118
-1.88196
-3.51852
-0.687413
4.20594
5.46875
1.91208
-5.35691
-0.193867
2.77618
-2.7102
-0.86796
-2.65056
1.81645
-2.68441
-3.15635
-1.9466
5.10295
-3.34697
-0.478183
3.33153
0.486427
-3.76414
-2.13025
3.76011
0.313175
-2.97231
6.04308
-3.07077
-4.92786
2.58276
3.51746
4.52709
-4.69532
2.3519
2.34342
-1.17786
6.01462
1.05181
6.05034
-9.00235
5.64529
7.65961
3.89787
-7.85661
0.769131
-8.23322
9.56663
-8.30183
-1.2648
4.89627
4.67035
5.30486
5.12919
-3.6665
8.97136
-1.17231
-7.12952
9.40552
-5.50765
5.75909
-11.2667
-10.8883
3.75877
-6.73187
8.34354
-1.61167
-2.4201
-5.40899
9.15197
-0.743389
-8.40858
5.5942
-5.28191
-5.36668
10.6486
-7.94209
8.6925
-2.53839
-6.15412
-6.56145
-3.99548
6.6136
1.11523
-9.7006
11.4955
-3.03245
5.82554
0.882187
5.84065
3.84457
-5.91767
2.0731
4.09752
-6.63591
2.40933
-8.327
-4.82779
9.45165
-4.62386
-7.44927
-6.51354
-0.935728
1.99818
9.49731
-6.73305
5.21829
1.51477
3.29567
0.527976
-3.34941
-0.417491
0.320532
4.37607
-4.6966
3.94572
4.0143
3.44286
0.933209
3.81939
2.04062
-3.84359
-0.36188
-3.88001
1.40986
-1.56179
-3.43131
4.84117
-3.83167
0.400359
-2.66902
-3.40717
6.07619
-4.53231
2.97511
3.06797
4.93651
-4.75536
1.34819
-2.4086
-2.34677
2.48348
-4.04527
1.89372
2.94745
4.11303
0.63519
4.82811
4.62354
-7.35624
0.507026
8.1146
-6.8192
1.60971
5.86986
-6.828
0.314459
-5.89814
1.13207
-6.15969
-5.39402
6.17201
-8.74621
-5.09473
7.90601
0.298465
-7.70794
-0.975123
-3.80962
-1.55813
-3.95929
-1.66067
-3.84271
-5.32717
-1.24817
-4.079
3.97304
-4.14139
-2.22545
4.47806
0.744707
-4.72386
4.55568
-4.64601
4.47156
0.199013
3.58338
4.32032
1.84995
-2.40551
4.25546
-6.84401
8.79113
-10.1919
3.34788
3.68878
-7.38299
-6.50312
3.66833
2.40307
3.38041
6.01598
-7.61193
1.59595
-6.65183
7.4811
-0.829265
-10.1175
3.46568
-4.10154
2.74609
0.254933
2.72206
0.71137
2.27224
-2.98361
-2.28832
-2.32199
-2.20623
-3.16634
5.37256
1.04175
-3.22426
2.18251
-3.19367
4.23543
-0.226854
-2.99741
5.06962
-2.79738
5.32455
-3.42053
1.90402
3.09663
5.20363
-2.107
4.10283
-1.63125
1.69032
-3.79732
-1.47602
-2.89926
4.95837
-3.17693
3.57729
-0.261762
3.83905
-3.98744
1.01976
-0.544576
3.46973
3.64915
4.00897
-3.07576
2.71468
-4.34593
-1.08264
-3.71074
-0.763285
-1.85827
-4.70408
6.56235
4.91852
-6.77679
-3.81959
6.55295
-2.73336
5.48424
-4.50241
-0.981829
-2.96021
-3.15923
2.83233
1.49458
6.97882
-0.117227
-4.38518
-3.90041
-2.95911
3.27984
0.0187186
-3.2825
5.37919
3.39278
-1.14148
0.449334
1.33531
1.80237
-1.35304
0.44363
1.35874
-1.47178
2.04053
0.735658
-2.09396
0.155076
-1.23965
3.0561
0.960081
-1.87899
0.525957
1.82596
-2.47894
4.17886
-1.48802
-2.69084
6.00482
1.66934
-3.15735
3.70822
-3.91425
2.3185
-3.00591
-0.838852
-4.7531
-3.54138
-2.30163
4.48414
-3.07093
4.98301
1.32779
-4.78914
6.11693
-3.39073
1.44413
-2.78553
3.52119
-0.844698
-1.94083
2.57624
2.52671
-2.70947
0.0589079
-0.133227
2.11885
-2.25208
-0.56556
-2.37674
-4.40481
4.71798
-2.13892
4.49082
2.11654
-1.9509
6.44172
1.79307
-3.74397
-3.13478
-3.61297
-1.40055
3.12654
-0.873555
-5.905
-7.02767
5.90679
0.143552
-8.92919
10.0589
-1.12969
-5.16679
-0.478502
5.37477
-7.30107
0.665166
-4.89174
5.16714
6.21895
6.3625
-8.25219
-0.156395
-4.76998
1.17963
-5.94961
5.84998
-2.69247
6.45124
-7.02359
4.79814
-6.27889
5.18644
-0.763164
5.4498
-3.37669
2.0866
-6.08208
-4.96685
6.97359
-3.52895
7.85578
-4.08718
11.943
-7.11963
6.87619
5.06677
-1.39928
-5.86002
-6.84041
5.44113
0.035783
5.87643
4.7828
-2.74218
4.42092
2.04379
-4.45239
-2.00148
-6.28448
1.83209
-3.21651
-1.82381
3.6559
3.1127
3.64068
1.30913
-3.22318
6.52953
-7.46526
-1.90568
-3.48835
6.72416
-1.28304
3.8422
-7.33054
-2.3175
5.33563
-0.82986
-4.50577
0.444666
-5.5394
2.60969
-8.14909
6.13652
-7.11165
1.39545
-5.49699
-3.3284
-3.55644
-1.33568
-3.31032
-4.63268
3.29699
-1.16699
3.38868
-5.40404
4.57418
-2.07706
5.37405
-3.42219
-0.537095
3.59182
0.879739
6.25379
-1.20863
-5.29449
-0.00114272
4.82163
-4.82049
3.27869
-5.9127
-1.09107
2.96254
3.04228
-6.35651
-1.02648
-6.32098
-2.74575
5.14883
3.8072
8.72572
1.11379
5.44149
-0.292669
6.55528
3.08774
2.7715
-3.72724
5.32319
2.83511
6.18299
-0.834439
2.73846
1.88762
1.91257
0.797627
2.22546
1.4237
3.24522
0.261612
-2.06038
4.34438
-7.30349
-0.0408035
-6.30381
2.70617
5.71619
-3.01002
3.6091
-3.59038
-1.21139
0.748257
-0.938148
0.189892
-1.89733
-2.07963
-0.720893
-1.51789
2.04385
1.53821
-1.32296
-0.574368
0.161261
-3.70264
2.84465
-2.78574
-0.259034
5.8579
-2.44005
0.187969
-0.995923
-2.18877
-2.68034
2.52527
6.08097
0.36075
3.0102
5.07873
2.94848
0.206306
4.38409
-5.99576
-3.94291
-6.15216
-0.302175
5.0726
1.87583
7.62148
6.9426
5.65956
-1.67099
-9.13625
7.25318
-1.92999
6.42392
-1.91814
-6.23095
6.41138
2.37975
-6.70984
-0.401807
-6.63275
-8.56274
-0.477311
5.05149
-5.77648
5.23938
3.68125
0.397741
-2.81672
-0.73972
3.09008
-0.318572
6.23671
-2.13925
-7.11906
9.25832
-3.57693
3.53613
3.25823
2.12095
3.44812
-0.142256
-7.26132
-10.2713
-1.19311
-1.28583
-3.88395
0.321987
-1.8602
4.62847
-1.09234
3.64664
8.16598
6.95459
-2.22843
-4.54836
4.96179
-1.31515
5.63944
)
;

boundaryField
{
    wall-4
    {
        type            calculated;
        value           uniform 0;
    }
    velocity-inlet-5
    {
        type            calculated;
        value           uniform -3.75095;
    }
    velocity-inlet-6
    {
        type            calculated;
        value           uniform -5.62643;
    }
    pressure-outlet-7
    {
        type            calculated;
        value           nonuniform List<scalar> 8(6.50212 6.41643 6.52607 6.69158 6.56371 6.63077 6.55429 6.62836);
    }
    wall-8
    {
        type            calculated;
        value           uniform 0;
    }
    frontAndBackPlanes
    {
        type            empty;
        value           nonuniform List<scalar> 0();
    }
}


// ************************************************************************* //
