/*--------------------------------*- C++ -*----------------------------------*\
  =========                 |
  \\      /  F ield         | OpenFOAM: The Open Source CFD Toolbox
   \\    /   O peration     | Website:  https://openfoam.org
    \\  /    A nd           | Version:  9
     \\/     M anipulation  |
\*---------------------------------------------------------------------------*/
FoamFile
{
    format      ascii;
    class       volVectorField;
    location    "3";
    object      U;
}
// * * * * * * * * * * * * * * * * * * * * * * * * * * * * * * * * * * * * * //

dimensions      [0 1 -1 0 0 0 0];

internalField   nonuniform List<vector> 
918
(
(0.973605 -0.034642 0)
(0.00345427 2.96727 0)
(-0.0473387 1.7327 0)
(0.911626 0.0569789 0)
(-0.00762468 1.71076 -6.86075e-21)
(-0.00662648 2.94878 -1.66016e-18)
(1.16217 1.56651 6.65411e-19)
(0.566808 0.306511 -9.61666e-21)
(0.993507 -0.00293354 0)
(0.0157195 1.74757 0)
(0.0187929 1.69193 0)
(0.921041 0.0295449 0)
(0.0170739 2.92624 0)
(-0.00473541 2.85415 0)
(-0.0425782 3.05776 1.11126e-18)
(0.00168095 1.67478 -2.88184e-20)
(0.704659 0.141324 8.19905e-19)
(0.259652 1.97955 6.36059e-19)
(0.959585 0.0448214 0)
(0.0190577 1.70284 0)
(0.447028 0.352033 -4.79596e-19)
(0.942709 -0.0134631 0)
(0.943238 -0.0220992 0)
(0.975641 0.0153664 0)
(0.8398 0.0421998 0)
(0.0544749 2.64294 0)
(-0.0309977 2.91182 5.57637e-19)
(-0.00851493 1.73229 0)
(0.000815141 1.73995 0)
(-0.00635546 1.72346 0)
(0.00613841 1.78352 0)
(-0.0156473 1.72325 5.44371e-21)
(-0.016579 1.68281 0)
(-0.0227567 2.98767 -5.7227e-23)
(-0.0169657 3.0054 1.29541e-18)
(0.00212186 3.00003 0)
(0.967939 0.0013983 0)
(0.548493 0.686297 2.88162e-20)
(1.09174 1.61133 -6.03409e-19)
(1.25127 1.31694 6.89896e-19)
(0.932458 1.81257 -1.47622e-19)
(1.01414 1.79063 9.21957e-19)
(0.603711 0.32337 9.38265e-21)
(0.573622 0.297271 0)
(1.31841 0.673542 0)
(0.588582 0.34682 3.74663e-20)
(0.524181 0.342857 -3.88699e-20)
(0.95931 -0.0155042 0)
(0.993452 -0.000148857 0)
(0.996213 0.00247324 0)
(0.956214 -0.0512669 0)
(0.996802 -0.00591737 0)
(1.00754 3.48296e-06 0)
(-0.0241501 1.60393 -5.15649e-19)
(-0.00139047 1.79031 0)
(0.0381125 1.78504 0)
(0.0135374 1.78144 0)
(0.00714738 1.70043 0)
(-0.0119501 1.68357 0)
(0.0100435 1.73466 0)
(0.0173277 1.69001 0)
(0.00875922 1.7306 0)
(0.00620111 1.69958 0)
(0.973712 -0.0124091 0)
(0.96003 0.0132712 0)
(0.928674 0.00607158 0)
(0.938489 0.00480519 0)
(0.925213 -0.0127039 0)
(0.016486 2.99963 6.06857e-19)
(0.0137771 3.00793 0)
(0.0073877 3.00165 0)
(0.0145767 2.99364 6.80314e-24)
(0.0129548 2.95712 -9.01973e-19)
(0.0128079 2.97608 0)
(0.00912662 2.90717 0)
(0.00282824 2.96645 1.05329e-24)
(-0.0144412 2.87709 0)
(0.0242043 2.95304 0)
(-0.00628336 2.80306 0)
(0.132651 3.26158 0)
(-0.127657 3.30484 0)
(0.0564554 3.12863 -1.03065e-18)
(-0.0289941 2.96534 0)
(-0.00528017 1.74995 0)
(0.00205114 1.72047 2.84287e-20)
(0.00937196 1.68148 -2.55741e-20)
(0.741095 0.17822 -2.86204e-19)
(0.719014 0.124761 -2.89058e-19)
(0.722703 0.219893 -8.52306e-19)
(0.668357 0.199153 -5.50159e-19)
(0.195311 1.3418 0)
(0.368251 2.05909 -6.51398e-19)
(0.489621 2.04266 1.1033e-18)
(0.980992 0.0145717 0)
(0.938711 0.00708705 0)
(1.00054 -0.00514931 0)
(0.979665 0.0323416 0)
(0.996526 0.0281335 -2.38141e-18)
(1.00011 0.0428796 1.80364e-18)
(0.0106116 1.73599 0)
(0.0108204 1.70444 0)
(0.000758879 1.73896 0)
(0.0208725 1.72833 0)
(0.00546331 1.69545 0)
(0.374618 0.430801 1.27212e-19)
(0.501041 0.380965 0)
(1.00148 0.0261607 0)
(0.969338 0.0181391 0)
(0.938153 -0.000437948 0)
(0.906573 0.0273822 0)
(0.906864 0.00975032 0)
(1.10393 -0.00930449 0)
(0.842368 0.063242 0)
(0.781338 0.0206474 1.26166e-18)
(-0.00306357 2.82482 1.72188e-19)
(0.0477094 2.93844 0)
(0.0527918 2.90588 0)
(-0.003377 2.74168 0)
(-0.041429 2.98417 4.9056e-19)
(-0.0394731 2.89365 0)
(-0.0283731 2.98887 -1.59634e-18)
(-0.0187781 2.9347 5.45663e-19)
(0.0186743 1.77036 0)
(0.0117586 1.76777 0)
(-0.0133928 1.72175 -3.75689e-22)
(0.00591509 1.72382 0)
(0.000321001 1.6718 0)
(0.993758 0.00920638 0)
(0.974256 -0.00330673 0)
(0.942394 -0.00933682 0)
(0.99351 0.0124331 0)
(0.964122 0.0188556 0)
(0.648861 0.923653 -4.86611e-20)
(0.441229 0.798658 0)
(0.735519 0.963159 1.57041e-20)
(0.617501 0.790612 0)
(1.12431 1.38352 -1.75978e-19)
(1.26395 1.06729 3.26818e-19)
(0.570738 2.06392 0)
(0.746684 1.97633 0)
(0.777973 1.97516 0)
(0.55936 1.19431 -3.43781e-19)
(0.631773 0.314667 0)
(0.616978 0.247639 1.42532e-19)
(1.19711 1.125 0)
(1.23628 0.924153 0)
(1.28065 0.849404 -2.44139e-19)
(1.25156 0.708354 0)
(1.32165 0.468549 5.41583e-20)
(0.992677 0.00674462 0)
(0.987996 -0.00694146 0)
(0.964882 -0.0151752 0)
(0.982745 0.0123622 0)
(0.991046 0.000810505 0)
(0.954867 0.0143392 0)
(0.994592 0.00261651 0)
(0.986572 0.00113416 0)
(0.997013 0.00233839 0)
(-0.000226252 1.6566 2.74331e-19)
(0.0495168 1.58958 0)
(-0.0144432 1.64293 4.60935e-19)
(0.00123753 1.6147 -3.91883e-19)
(0.169949 1.94784 -5.32183e-19)
(0.0365639 1.84384 0)
(0.0982033 1.85209 0)
(0.000611355 1.76401 0)
(-0.035623 1.70871 0)
(0.00363129 1.71401 -1.18713e-21)
(0.00759372 1.66576 0)
(-0.00874145 1.71836 -6.02897e-20)
(0.00369023 1.69207 1.12171e-19)
(-0.0169431 1.75996 0)
(0.0177391 1.74062 0)
(0.00381547 1.70594 0)
(-0.00141133 1.73344 0)
(0.00323613 1.68915 0)
(1.01602 0.0148428 0)
(1.00273 0.0175364 0)
(1.00797 0.00281675 0)
(0.97144 0.00484162 0)
(0.951007 -0.0141542 0)
(0.980917 0.00113129 0)
(0.959149 0.0169804 0)
(0.941477 -0.0028092 0)
(0.0188407 3.05332 -4.63836e-21)
(0.0197017 3.05507 0)
(0.000146127 2.97019 0)
(-0.0069378 2.89019 0)
(0.620506 3.459 0)
(0.884737 2.71634 7.46468e-19)
(0.0507771 3.05975 0)
(-0.013862 2.89723 0)
(0.00319904 1.74791 0)
(0.00613245 1.74239 0)
(0.00217633 1.74751 0)
(0.00336758 1.78116 5.601e-21)
(-0.00599858 1.75005 0)
(-0.00636486 1.76713 0)
(-0.0128759 1.67629 -5.5618e-21)
(0.00730753 1.72956 4.63874e-20)
(0.0149081 1.73898 2.59108e-20)
(0.0318207 1.69133 0)
(0.767114 0.127655 4.51405e-19)
(0.733598 0.0728688 -4.36418e-19)
(0.168593 1.40314 0)
(0.257041 1.33179 -2.15571e-19)
(0.138183 1.43364 -6.27942e-19)
(0.148722 1.40571 6.27416e-19)
(0.963354 -0.0144628 0)
(0.977139 -0.0100014 0)
(0.971806 -0.00789989 0)
(0.948067 0.00780205 0)
(0.00121083 1.72664 0)
(-0.00322975 1.74268 0)
(-0.0115447 1.7004 0)
(0.554798 0.361384 3.10316e-19)
(0.530646 0.381681 -3.09345e-19)
(0.507621 0.355612 0)
(1.19684 0.0860603 2.40152e-20)
(1.2074 0.0381111 0)
(1.12536 0.0384436 0)
(1.05107 0.0103018 0)
(0.786377 0.101281 0)
(0.813546 0.0523717 -2.02527e-18)
(0.759622 0.0279633 7.6814e-19)
(0.00633778 2.97022 2.95229e-19)
(-0.0321343 2.83584 5.87207e-20)
(0.00443574 3.05163 -1.09374e-20)
(0.0132288 3.0356 4.36897e-19)
(-0.0181855 3.00226 1.8042e-20)
(-0.00965099 2.95544 -7.43886e-23)
(-0.0155691 3.01129 -3.5812e-19)
(0.0142643 3.02281 2.62353e-19)
(0.00929732 3.03088 -4.39776e-19)
(1.00655 0.0176412 0)
(1.00369 0.00851416 0)
(0.95997 0.0303513 0)
(0.98728 -0.0182139 0)
(0.984047 -0.000828852 0)
(0.956405 -0.0129344 0)
(0.978219 0.00441835 0)
(0.98311 0.00481307 0)
(0.954544 0.0125088 0)
(0.592742 1.03574 1.67369e-19)
(0.477357 1.08828 0)
(0.639264 1.05553 9.7152e-20)
(0.6725 1.18063 6.98903e-19)
(0.701378 1.07691 -3.74627e-19)
(0.652531 0.936851 7.01398e-19)
(0.467627 1.31248 1.66714e-18)
(0.489425 1.20264 3.33919e-19)
(0.692384 0.242529 5.84537e-19)
(0.670666 0.275563 1.4072e-19)
(0.658451 0.220061 2.79547e-19)
(1.26629 0.504262 7.88502e-20)
(1.30731 0.348324 7.60458e-20)
(0.0129669 1.67301 1.85312e-19)
(0.0270421 1.65101 0)
(1.06884 0.0247906 0)
(1.04835 0.0101874 0)
(1.01993 -0.00787411 0)
(0.0311316 3.06421 0)
(-0.00976571 2.96853 6.41028e-19)
(-0.0106718 2.96336 0)
(-0.020498 2.88641 -6.42682e-19)
(0.0337878 3.08353 1.36156e-19)
(0.0314382 3.07394 0)
(0.564502 1.31024 -1.55775e-19)
(0.868895 1.91926 3.36381e-19)
(0.501122 1.44126 -9.47625e-19)
(0.0404575 2.97463 -1.6669e-19)
(0.0488526 3.0001 0)
(0.00567105 2.84013 0)
(0.00907731 1.73097 -4.79191e-21)
(-0.0194396 1.73838 -8.30945e-20)
(0.00304576 1.71144 -4.98746e-21)
(0.244486 1.39236 6.78516e-19)
(0.336114 1.30972 -4.72241e-19)
(0.0397684 1.60839 4.34844e-19)
(0.0804235 1.51775 -5.23775e-19)
(0.0858217 1.4964 5.67212e-20)
(0.0269488 3.09776 -8.10796e-19)
(0.0329722 3.10467 9.08162e-19)
(-0.032219 2.9731 4.33897e-19)
(-0.0284571 2.9587 -3.42308e-19)
(-0.0477284 2.85417 -4.41986e-19)
(0.029207 3.079 -1.01153e-18)
(0.0269604 3.0945 1.15977e-18)
(0.566603 1.2885 0)
(0.626949 1.24662 -1.63175e-18)
(0.62015 1.13866 7.32891e-19)
(0.43652 1.30158 9.30165e-19)
(0.468907 1.23848 -1.44797e-18)
(1.26254 0.172553 5.1845e-20)
(1.27442 0.31324 0)
(1.2893 0.140869 3.42205e-21)
(-0.00909962 1.70007 -1.68518e-21)
(0.00636256 1.70576 0)
(-0.00952538 1.66272 0)
(0.311733 1.36896 -2.41784e-19)
(0.376802 1.35093 -5.805e-19)
(0.391804 1.27644 1.06106e-18)
(1.00541 -0.0388546 0)
(1.00925 -0.0641731 4.44337e-19)
(0.00554641 1.76391 0)
(-0.00109636 1.77237 0)
(1.01582 0.0111682 1.18771e-20)
(0.980079 0.0119265 9.22787e-19)
(0.012714 1.78024 -7.41611e-21)
(0.0164267 1.78181 0)
(0.0680376 3.21856 -1.6937e-19)
(0.2004 3.35554 0)
(1.06596 0.691213 -7.60798e-20)
(1.01185 -0.0141109 -4.49899e-21)
(1.0138 0.0141966 0)
(1.0167 -0.00535771 -3.97127e-21)
(0.0654815 1.85509 0)
(0.039182 1.6835 0)
(-0.00956141 1.78861 0)
(0.0212222 1.7476 9.35886e-20)
(0.0183641 1.75928 4.6401e-20)
(0.988055 -0.00374841 3.30829e-22)
(1.04668 0.00781555 0)
(1.06056 0.0245439 0)
(0.0105672 1.74658 0)
(-0.0208099 1.78189 0)
(-0.00464971 1.77962 0)
(0.261569 1.96215 -2.40737e-19)
(0.971449 -0.0284693 0)
(0.97918 -0.0265409 0)
(1.01714 -0.00704623 5.77275e-19)
(1.03206 -0.00978764 -6.70412e-19)
(1.02628 -0.0157756 0)
(-0.00463201 1.75332 0)
(0.00829642 1.75836 0)
(0.00356436 1.74735 0)
(-0.00578196 1.7813 0)
(-7.95815e-05 1.77244 0)
(-0.00745584 1.77489 0)
(1.02328 0.00873046 0)
(1.01745 -0.0146398 -3.92133e-21)
(0.78578 1.60225 3.11311e-19)
(1.01249 -0.00920001 -5.68274e-19)
(1.0401 0.0201179 6.91588e-19)
(1.00852 0.00210732 0)
(1.01003 -0.0064199 5.49561e-19)
(0.987279 0.018117 -6.81591e-19)
(0.995081 0.0179039 0)
(-0.00880618 1.78358 0)
(0.00668613 1.77459 1.49692e-20)
(0.00398425 1.77878 -9.91774e-21)
(1.17385 0.272582 5.16865e-19)
(1.09803 0.0615179 0)
(0.161332 3.11434 -2.98661e-19)
(0.0715356 2.88185 -3.50919e-20)
(0.123192 3.25201 -1.43454e-19)
(0.104245 3.25105 1.46994e-19)
(0.101753 3.25415 0)
(0.0246543 3.16125 2.27522e-20)
(0.077618 3.16237 3.02806e-19)
(0.0853081 3.21586 -6.87456e-20)
(0.0766302 3.11422 0)
(0.693672 0.329079 0)
(0.611369 0.402796 0)
(1.04597 0.708855 1.94175e-19)
(1.12329 0.848151 -2.1551e-19)
(1.09537 0.580224 0)
(1.169 0.520763 0)
(1.02257 -0.00235651 -1.06038e-18)
(1.01559 -0.00906478 1.31306e-18)
(1.01911 0.0189702 0)
(1.01314 -0.0010527 0)
(0.996789 0.0185159 0)
(1.01807 -0.00879598 0)
(1.01228 -0.00640695 0)
(1.03077 -0.0281498 0)
(1.02088 -0.00336277 0)
(1.02254 0.0131661 0)
(0.0656372 1.85437 0)
(0.0368974 1.8567 0)
(0.0686561 1.87356 0)
(0.0652211 1.89777 0)
(0.0683026 1.65816 0)
(0.0850527 1.66835 -2.93871e-19)
(0.0277312 1.70742 0)
(0.0341016 1.69986 1.59493e-19)
(0.0111571 1.75022 -1.64832e-19)
(-0.0147138 1.78314 0)
(-0.0167782 1.77738 0)
(0.0153761 1.79418 0)
(0.00959345 1.80449 0)
(0.00253557 1.74205 -5.99925e-20)
(0.0244451 1.75082 6.01759e-20)
(0.0164874 1.76357 7.52401e-20)
(0.0276881 1.76848 0)
(0.00102206 1.77188 -1.07583e-19)
(-0.00740031 1.76762 -6.14456e-20)
(0.00402099 1.73563 4.54163e-20)
(0.0202195 1.74104 -7.67143e-20)
(0.0207714 1.75853 -8.70271e-20)
(0.996601 -0.000813037 9.89028e-19)
(1.00641 -0.0036881 -1.22109e-18)
(0.99246 0.00635616 -1.00412e-18)
(0.95209 -0.00590658 1.30425e-18)
(1.03851 -0.0100482 0)
(1.05058 -0.0123557 0)
(1.03905 0.0210465 0)
(1.05845 0.030194 0)
(1.05972 0.0279639 0)
(1.07204 0.0541215 0)
(1.07232 0.0384748 0)
(1.08083 0.0404435 0)
(0.0010227 1.75952 -2.96551e-21)
(0.0222224 1.73869 0)
(0.0123389 1.7419 0)
(-0.0205516 1.7801 2.11245e-20)
(-0.0269079 1.78669 -5.25821e-22)
(-0.00840515 1.73092 9.78381e-21)
(-0.00409327 1.76033 -9.92647e-21)
(0.0149982 1.7668 0)
(0.00882737 1.7594 0)
(0.00283892 1.76185 0)
(-0.00179008 1.77694 0)
(-0.0112323 1.77285 0)
(0.410035 1.93871 3.71698e-19)
(0.415326 1.94977 1.98759e-19)
(0.269041 1.50599 -1.65607e-19)
(0.156142 1.52785 4.44579e-19)
(0.312548 1.65162 1.07149e-19)
(1.00859 -0.0025707 0)
(0.992318 -0.00799065 0)
(1.00647 0.0132317 0)
(1.0231 -0.0168944 0)
(1.00857 -0.0167955 0)
(0.989506 -0.00572379 0)
(0.972187 0.0546734 0)
(1.02321 0.066063 0)
(1.00672 -0.00344503 1.00522e-18)
(1.01703 0.0129378 -1.26102e-18)
(1.01465 -0.0168379 -9.7624e-19)
(1.00751 -0.00990632 1.25751e-18)
(0.781592 1.67822 0)
(0.692866 1.76583 2.839e-19)
(0.880451 1.48261 7.95485e-20)
(0.907163 1.45647 -1.05443e-19)
(0.898567 1.7378 2.22884e-19)
(0.854445 0.12059 4.80083e-19)
(1.11467 0.0953666 0)
(1.13705 0.154771 -4.18329e-19)
(1.1312 0.126723 -1.76674e-20)
(0.956601 0.148762 0)
(0.149205 3.22154 -6.50886e-19)
(0.240375 3.01609 -1.39987e-20)
(0.247055 2.30558 2.39574e-19)
(0.349482 0.375304 3.29342e-20)
(0.126146 3.34707 -5.57796e-19)
(0.100294 3.30007 0)
(0.122393 3.27163 6.53944e-19)
(0.112163 3.22613 1.35277e-18)
(0.141131 3.26193 0)
(0.0145376 3.11477 1.91221e-20)
(0.0360454 3.12347 -2.60556e-19)
(0.0352408 3.11686 3.83674e-19)
(0.0473217 3.14218 0)
(0.0532176 3.16489 0)
(0.875293 1.98592 0)
(0.125238 0.668998 -2.20295e-19)
(1.07264 1.15463 3.81722e-20)
(0.94311 1.23053 0)
(0.721092 1.09162 -1.59257e-19)
(0.967083 0.995871 2.86712e-20)
(0.585258 0.54274 4.72171e-20)
(0.689131 0.329482 -1.76163e-20)
(0.682552 0.323238 2.98762e-19)
(0.609564 0.398164 1.43747e-20)
(0.600828 0.401469 -5.72691e-19)
(0.695775 0.343067 0)
(0.677456 0.394095 4.2446e-19)
(0.681291 0.388335 0)
(0.629112 0.386285 0)
(0.642069 0.346633 0)
(0.649638 0.660196 3.35981e-19)
(1.17432 0.29443 -4.2009e-19)
(1.17537 0.387231 0)
(1.17499 0.375068 0)
(0.78244 0.232107 4.82943e-19)
(0.70617 0.51399 -2.79086e-19)
(0.680095 0.467806 5.01439e-19)
(0.846915 0.417844 -5.66095e-19)
(1.0088 0.0269269 6.79591e-19)
(1.01623 0.00501183 -7.19086e-19)
(1.01117 0.0282924 0)
(1.01752 -0.00117575 0)
(1.02377 -0.0292764 -6.55438e-19)
(1.01948 -0.0171292 6.34457e-19)
(1.0005 -0.00519063 0)
(0.997009 -0.00626296 0)
(1.01812 -0.00849292 0)
(1.01894 -0.00879023 0)
(1.00246 -0.0185515 0)
(0.999764 -0.0018283 0)
(0.0252697 1.84792 0)
(0.0194178 1.83616 0)
(0.0497938 1.80778 4.49477e-20)
(0.255751 1.93392 1.21398e-19)
(0.0900298 1.91016 2.55789e-19)
(0.120586 1.93779 -4.14219e-19)
(0.121266 1.83726 0)
(0.147258 1.7563 -1.02431e-19)
(0.135404 1.79254 0)
(0.288666 1.69907 -1.54734e-19)
(0.230252 1.6464 4.90989e-19)
(0.168023 1.76679 8.88767e-20)
(0.260674 1.88646 3.74059e-20)
(0.199822 1.83977 -3.02602e-20)
(0.341723 1.76925 -9.86939e-20)
(0.252422 1.72278 0)
(0.283 1.73237 9.03119e-20)
(0.0175618 1.73398 -4.88834e-20)
(0.0285064 1.74577 0)
(0.0853681 1.72479 1.82452e-19)
(0.0339453 1.72855 0)
(0.0520853 1.72368 -1.86052e-19)
(0.0449247 1.74779 0)
(0.0213625 1.76862 -4.22289e-20)
(-0.00227767 1.77502 0)
(0.0174823 1.76132 0)
(0.0330465 1.76148 4.70282e-20)
(0.0130453 1.75297 -4.08168e-21)
(0.00580447 1.75644 1.88392e-19)
(0.0125903 1.75352 1.32523e-21)
(0.0201892 1.72828 3.89393e-20)
(-0.0150675 1.73715 2.74614e-20)
(-0.00586794 1.77794 0)
(0.0103815 1.77029 0)
(0.0157679 1.74646 1.2655e-19)
(0.0175879 1.74594 1.01845e-19)
(-0.00537489 1.75769 -1.42543e-19)
(0.0193124 1.75163 0)
(-0.0151264 1.76985 -4.76259e-20)
(0.0047599 1.77434 2.85317e-20)
(0.0252392 1.76977 -1.11423e-20)
(0.0293928 1.72659 -4.82519e-20)
(-0.011184 1.74252 -1.90447e-20)
(-0.00584697 1.755 7.16089e-20)
(1.0104 0.00470275 -6.87315e-19)
(0.999794 0.0292701 6.5617e-19)
(1.00131 0.0294359 0)
(0.976134 0.0300473 9.00046e-19)
(0.937444 0.0487908 -1.04973e-18)
(0.926148 0.0485889 1.17699e-18)
(0.96721 0.0248989 -1.19838e-19)
(1.03877 -0.00646118 0)
(1.04337 -0.0222987 6.27882e-19)
(1.03268 -0.0237439 -6.43655e-19)
(0.989319 0.0264995 -3.58001e-20)
(1.0145 0.0218515 3.00457e-19)
(0.987107 0.0573892 0)
(0.988275 0.0462183 -1.12668e-19)
(1.00976 0.0503717 0)
(0.997914 0.0416256 0)
(1.00979 0.0237883 0)
(1.00855 0.0198161 0)
(1.02189 0.0432615 2.22941e-19)
(1.0004 0.00152986 -4.99565e-19)
(0.945001 0.00415042 -2.39672e-19)
(0.977992 0.020627 -2.62931e-19)
(0.995293 0.0655287 5.18478e-19)
(1.04416 0.0693537 0)
(1.01539 0.0651422 0)
(-0.0217697 1.76636 -3.77847e-20)
(-0.0206274 1.75869 -2.3055e-21)
(-0.0217556 1.76445 0)
(-0.0094819 1.78017 3.75545e-20)
(0.0175871 1.76406 5.07513e-21)
(0.00588339 1.77383 -4.65876e-21)
(0.00671443 1.77171 5.06003e-20)
(0.0293097 1.75707 -3.41126e-21)
(0.00628511 1.73854 1.86515e-20)
(-0.0183201 1.79209 -3.19138e-20)
(0.00240269 1.77563 3.86245e-20)
(0.0262129 1.73927 -5.56703e-22)
(-0.006428 1.71313 1.2849e-20)
(0.386965 1.81114 -1.4092e-19)
(0.345886 1.77466 1.221e-19)
(0.6905 1.81346 -2.74714e-19)
(0.556207 1.89929 -1.91498e-19)
(0.580088 1.87456 0)
(0.31145 1.5102 1.66557e-19)
(0.339349 1.51208 2.39035e-19)
(0.182332 1.53519 4.0041e-20)
(0.206939 1.53048 -5.92275e-19)
(0.225469 1.52719 4.83356e-19)
(0.240172 1.52966 0)
(0.182397 1.52621 -3.79042e-19)
(0.130433 1.6218 7.67622e-19)
(0.174908 1.57831 -4.56266e-20)
(0.124492 1.61723 -1.03988e-18)
(0.596934 1.47075 9.94869e-19)
(0.491637 1.47909 0)
(1.0202 -0.00335685 2.05008e-20)
(1.03145 0.0618517 -1.76985e-20)
(1.00299 -0.000236284 -3.19664e-19)
(0.99955 0.00428082 3.29365e-19)
(0.999775 0.0266544 0)
(0.648518 1.64458 0)
(0.576539 1.51343 0)
(0.715324 1.31069 0)
(0.527087 1.46183 0)
(0.896633 1.68626 1.25698e-19)
(0.958388 1.56512 0)
(0.623107 1.63656 6.90395e-21)
(0.490801 1.57751 0)
(0.566711 1.53354 -6.87561e-19)
(0.591784 1.56132 4.38681e-19)
(0.862785 0.138848 0)
(0.828487 0.144305 1.32499e-19)
(0.897363 0.0944502 7.54395e-19)
(0.858618 0.107896 -2.76108e-19)
(0.855976 0.0763215 -8.75738e-19)
(0.982531 0.196539 -7.31189e-19)
(0.920705 0.265558 -1.84326e-20)
(0.831913 0.264943 6.53349e-19)
(0.923343 0.219103 6.08141e-19)
(0.911817 0.122499 -9.76218e-19)
(0.886769 0.175643 1.21022e-19)
(0.815509 0.250325 -2.74706e-19)
(0.876564 0.214741 0)
(0.954507 0.156279 4.93926e-19)
(0.949576 0.162364 0)
(0.945137 0.218803 0)
(1.05529 0.137704 2.43198e-19)
(0.962627 0.175967 -6.2091e-21)
(0.977119 0.179107 -1.38487e-19)
(1.00173 0.200383 0)
(1.00572 0.0525454 4.98513e-19)
(1.00578 0.0387227 6.22947e-19)
(1.01101 0.0551633 -4.87538e-19)
(1.01168 0.055542 -4.24502e-19)
(0.975232 0.059124 -6.45659e-19)
(0.961306 0.101648 0)
(0.958295 0.02869 0)
(0.92048 0.0775865 -4.09945e-19)
(0.911076 0.0677409 1.53365e-19)
(1.00876 0.0724163 5.6446e-19)
(0.993155 0.0900626 -6.86951e-19)
(0.980326 0.110431 6.1657e-19)
(0.969054 0.118028 0)
(0.982935 0.0740012 0)
(0.988851 0.0691323 -2.86146e-19)
(1.0005 0.0785933 -4.64919e-19)
(0.496057 1.6509 2.84112e-19)
(0.514811 1.81091 -3.16617e-19)
(0.773649 1.9173 -3.30602e-19)
(0.738432 2.41363 -3.68474e-24)
(0.913266 1.91994 -7.97835e-20)
(0.906163 1.99852 -1.60101e-19)
(0.955026 1.6325 -1.05784e-20)
(0.748915 2.23674 -1.09382e-19)
(0.830503 2.10572 3.16342e-19)
(0.734696 2.6369 -1.44985e-19)
(0.929293 2.28756 1.75694e-19)
(0.906195 2.3113 0)
(0.0839692 0.812072 -5.02879e-20)
(0.223297 1.83153 -3.02585e-19)
(0.842773 0.379731 8.12533e-20)
(0.681244 0.31343 7.5757e-20)
(0.589541 0.413565 3.17788e-19)
(0.589024 0.402717 -4.23388e-19)
(0.563167 0.385812 2.80346e-19)
(0.624462 0.400211 -8.29183e-20)
(0.571959 0.430842 3.29446e-19)
(0.780942 0.2622 -2.74042e-19)
(0.71745 0.304175 0)
(0.744604 0.257648 9.72216e-21)
(0.602886 0.461026 2.23446e-19)
(0.613677 0.425943 -8.22747e-19)
(0.573464 0.38827 -1.4008e-20)
(0.590355 0.416232 0)
(0.365977 0.819319 3.06094e-19)
(0.66516 0.876691 4.41859e-19)
(0.5514 0.899075 -5.03918e-19)
(0.677007 0.890872 -1.67949e-19)
(0.816717 0.91372 -5.15184e-20)
(0.808068 0.936434 5.20049e-20)
(0.770107 0.607654 -5.75736e-19)
(0.785755 0.714592 1.56586e-19)
(0.882084 0.777103 0)
(0.855559 0.732758 -1.94934e-19)
(0.924518 0.307073 1.7686e-19)
(1.06392 0.290541 2.46881e-19)
(1.02408 0.240466 2.93947e-19)
(0.89553 0.40032 -3.64857e-19)
(0.995984 0.384635 0)
(0.993429 0.390951 0)
(0.845993 0.347262 1.24675e-20)
(0.771433 0.290502 0)
(0.786585 0.288306 3.15511e-19)
(0.865679 0.275565 -2.01646e-20)
(0.841097 0.409803 1.52947e-18)
(0.811294 0.464521 4.39169e-19)
(0.817346 0.433443 -4.26853e-19)
(0.742856 0.380709 4.56222e-19)
(0.729928 0.398545 2.60569e-19)
(0.692125 0.413779 -2.52728e-19)
(0.981634 0.0301181 5.68054e-19)
(0.996849 -0.022978 0)
(1.01429 -0.00654896 3.65615e-19)
(0.989085 0.0124817 -8.31224e-19)
(1.01173 -0.00917396 3.9197e-19)
(1.017 0.0350916 -8.51157e-19)
(1.00772 -0.00118384 0)
(0.989763 -0.0209723 -1.74607e-19)
(1.00744 0.0254469 4.50787e-19)
(0.991937 0.0135791 -2.31359e-19)
(0.985107 -0.0191704 1.6728e-19)
(0.0191871 1.80589 0)
(0.0198503 1.76894 0)
(0.0159881 1.82618 0)
(0.0156691 1.81528 0)
(0.0664185 1.75927 8.16776e-20)
(0.0655659 1.76932 -4.89819e-20)
(0.0881224 1.78215 -2.0887e-20)
(0.0589774 1.75857 -4.906e-20)
(0.046133 1.75974 -8.26366e-20)
(0.0407137 1.76903 6.22923e-20)
(0.0533147 1.77967 -3.72031e-20)
(0.0378704 1.798 -3.43306e-21)
(0.0251726 1.77447 -1.3027e-21)
(0.0122131 1.76532 -9.3743e-21)
(0.0843245 1.72872 -2.00048e-19)
(0.0754036 1.71823 0)
(0.0850152 1.70007 1.18212e-19)
(0.110123 1.7826 6.91656e-20)
(0.191536 1.68407 -9.14398e-20)
(0.171883 1.65256 0)
(0.193179 1.61813 -5.51382e-19)
(0.22664 1.64381 3.72977e-19)
(0.121511 1.69865 -2.32754e-19)
(0.100683 1.67145 1.35134e-19)
(0.0738593 1.64047 0)
(0.0145949 1.74033 -1.447e-19)
(0.0126666 1.75222 -1.78034e-19)
(0.00670072 1.735 0)
(0.0110108 1.74787 -4.37617e-21)
(0.0076858 1.73307 7.18768e-20)
(0.00182596 1.78661 1.80802e-21)
(0.00518724 1.785 -2.87113e-20)
(-0.00373713 1.78076 -1.20997e-20)
(-0.00607427 1.76727 3.4709e-20)
(0.0250494 1.77723 0)
(0.00338466 1.78847 0)
(-0.0118567 1.77256 2.28226e-20)
(-0.00649769 1.78505 -7.46472e-21)
(0.000242006 1.7886 0)
(0.00926681 1.77483 1.75222e-20)
(-0.00978904 1.77096 -3.46909e-20)
(0.96981 0.0313602 0)
(1.01981 0.0656597 -5.71327e-20)
(1.01703 -0.00433388 -3.7832e-19)
(0.971846 0.00311382 0)
(1.01875 0.0300298 0)
(1.01102 -0.0239093 -2.33488e-20)
(0.970476 -0.00148432 6.60302e-19)
(0.99808 0.00491828 7.82381e-19)
(0.995643 0.0198114 0)
(0.997395 0.00916134 0)
(0.997794 -0.000894912 3.99199e-19)
(1.00782 0.0115532 0)
(0.996899 0.0156593 0)
(0.0334959 1.76907 0)
(0.00371958 1.70743 -3.77796e-21)
(-0.0120917 1.77211 8.22831e-21)
(-0.00947091 1.76821 0)
(0.0125994 1.69173 2.28226e-20)
(0.0140334 1.72696 -4.74443e-22)
(-0.00533793 1.77482 0)
(0.405857 1.67496 0)
(0.331991 1.72649 -2.6509e-19)
(0.354022 1.6891 0)
(0.475684 1.76291 2.02087e-19)
(0.476854 1.80599 0)
(0.436401 1.79354 -4.12375e-20)
(0.626799 1.52246 -2.06475e-20)
(0.662865 1.48146 -1.12783e-18)
(0.714708 1.4757 1.32471e-18)
(0.503115 1.49338 2.70497e-19)
(0.508979 1.52548 0)
(0.520359 1.50855 0)
(0.562907 1.49187 0)
(0.514903 1.48204 -1.01264e-18)
(0.360036 1.54603 -5.08891e-19)
(0.460111 1.52154 -1.29725e-19)
(0.47461 1.53062 1.06794e-19)
(0.380925 1.49851 0)
(0.469482 1.49229 0)
(0.424836 1.49529 -2.91931e-19)
(0.439596 1.52847 0)
(0.40246 1.46856 0)
(0.0141099 1.49273 -6.49638e-19)
(0.233745 1.10149 -5.21086e-20)
(0.383028 1.62617 0)
(0.186364 1.66867 1.04744e-18)
(0.610383 0.985656 -1.72224e-19)
(0.655451 1.18971 0)
(0.664239 1.12594 2.64726e-19)
(0.391707 1.29824 0)
(0.413581 1.16445 0)
(0.865398 1.71514 -3.09826e-19)
(0.786636 1.8583 -2.95847e-19)
(0.656095 1.75243 5.41551e-19)
(0.668293 1.7006 -1.68642e-19)
(0.889965 1.63237 0)
(0.818575 1.57389 2.20309e-19)
(0.952693 1.51532 -3.08246e-19)
(0.909072 1.48369 -1.80806e-20)
(0.572938 1.62052 0)
(0.522403 1.6584 -2.43255e-19)
(0.525625 1.62298 0)
(0.846594 0.214285 0)
(0.827174 0.155842 0)
(0.784777 0.18538 0)
(0.827161 0.222214 -4.95357e-19)
(0.786917 0.225261 2.91027e-19)
(0.909742 0.0542069 -3.13773e-19)
(0.927731 0.07753 0)
(0.900616 0.0823542 1.45973e-19)
(0.870873 0.0467125 5.58274e-19)
(0.88045 0.045102 -3.61776e-19)
(0.65275 2.88444 -6.15553e-19)
(0.685566 2.7959 0)
(0.705245 3.02937 -1.80685e-18)
(0.210966 3.29712 1.32649e-18)
(0.220016 3.02213 5.00347e-19)
(-0.198955 1.19033 1.46721e-19)
(-0.194663 1.52756 0)
(0.0279918 0.457907 1.66324e-20)
(0.170532 0.455747 3.57743e-19)
(0.559379 0.156713 -5.40323e-20)
(0.655469 0.404479 -2.57637e-20)
(0.612947 0.444522 2.30585e-19)
(0.609268 0.456471 0)
(0.514197 0.449442 0)
(0.574368 0.373632 0)
(0.896629 0.610138 1.05634e-19)
(0.793585 0.48169 -4.27478e-19)
(0.803164 0.56268 3.6924e-19)
(0.858517 0.478956 -3.33538e-19)
(1.05037 0.452032 0)
(1.05513 0.546584 -9.55734e-20)
(0.751809 0.351172 -6.10602e-19)
(0.747039 0.344781 -7.8606e-19)
(0.700585 0.394154 4.89899e-19)
(0.738626 0.336117 -4.81098e-19)
(0.763917 0.298309 -3.86152e-19)
(0.751333 0.314706 4.73996e-19)
(1.01514 -0.00630619 -4.09647e-19)
(1.0193 0.000193118 8.47382e-19)
(0.99781 0.0443861 5.44247e-19)
(1.00572 0.0440055 -6.44819e-19)
(0.956962 0.0200478 0)
(0.955231 -0.00586897 -1.05296e-18)
(0.0476997 1.76277 2.67261e-20)
(0.0313478 1.73498 0)
(0.0679989 1.77315 2.35805e-19)
(0.0889235 1.77841 -1.99753e-19)
(0.055605 1.73047 3.87835e-20)
(0.0372198 1.70618 0)
(0.0421022 1.73869 0)
(0.0139194 1.78217 -8.53393e-22)
(-0.000817473 1.75409 7.64593e-22)
(0.0151456 1.71264 -5.03614e-21)
(0.0516735 1.75386 -1.46727e-20)
(0.0267733 1.73699 1.53892e-20)
(0.51905 1.611 -6.81014e-19)
(0.486679 1.62772 7.30572e-19)
(0.492625 1.7117 -1.64352e-19)
(0.480151 1.66417 2.88298e-20)
(0.652463 1.66983 0)
(0.578921 1.76213 7.51519e-20)
(0.614227 1.7165 -7.24509e-20)
(0.519112 1.74139 1.58951e-19)
(0.576825 1.64023 0)
(0.573897 1.63745 0)
(0.359665 1.5278 7.81368e-19)
(0.363157 1.47829 1.2317e-18)
(0.405907 1.51584 -8.39569e-19)
(0.284939 1.5183 -1.49953e-19)
(0.301165 1.52427 2.58113e-19)
(0.224315 1.52032 -6.26501e-19)
(0.771064 1.47609 -7.38772e-19)
(0.860324 1.47427 0)
(0.817618 1.47372 -7.30644e-19)
(0.750145 1.52814 0)
(0.712253 1.51411 0)
(-0.0543593 2.68561 5.36935e-20)
(0.404511 2.65437 1.09081e-19)
(0.263628 2.88941 -2.25811e-19)
(0.123011 1.70567 0)
(-0.0905852 1.33658 5.91778e-20)
(-0.23265 1.36239 -2.84249e-19)
(-0.0932596 2.69797 0)
(-0.0299742 2.98538 -3.6587e-19)
(0.00520131 2.97311 0)
(0.40317 0.558634 -6.54579e-19)
(0.596199 0.708246 8.8975e-19)
(0.647909 0.647632 -8.39519e-19)
(0.48796 0.496176 -7.1146e-20)
(0.605072 0.480761 -2.88211e-19)
(0.355149 2.51036 -8.1152e-20)
(0.427425 2.26521 -1.97725e-19)
(-0.0146137 2.49066 5.35868e-19)
(-0.0463705 2.26009 -4.23707e-19)
(0.488964 1.96202 -6.93127e-19)
(0.530967 2.10174 -1.99659e-19)
(0.591449 1.85456 4.61247e-19)
(0.173661 2.21929 3.54374e-20)
(0.366341 2.06865 2.9035e-19)
)
;

boundaryField
{
    wall-4
    {
        type            noSlip;
    }
    velocity-inlet-5
    {
        type            fixedValue;
        value           uniform (1 0 0);
    }
    velocity-inlet-6
    {
        type            fixedValue;
        value           uniform (0 3 0);
    }
    pressure-outlet-7
    {
        type            zeroGradient;
    }
    wall-8
    {
        type            noSlip;
    }
    frontAndBackPlanes
    {
        type            empty;
    }
}


// ************************************************************************* //
