/*--------------------------------*- C++ -*----------------------------------*\
  =========                 |
  \\      /  F ield         | OpenFOAM: The Open Source CFD Toolbox
   \\    /   O peration     | Website:  https://openfoam.org
    \\  /    A nd           | Version:  9
     \\/     M anipulation  |
\*---------------------------------------------------------------------------*/
FoamFile
{
    format      ascii;
    class       volScalarField;
    location    "8";
    object      p;
}
// * * * * * * * * * * * * * * * * * * * * * * * * * * * * * * * * * * * * * //

dimensions      [0 2 -2 0 0 0 0];

internalField   nonuniform List<scalar> 
918
(
0.242561
0.938633
0.00808946
0.240159
0.00249289
0.90575
-0.753093
0.439122
0.221768
-0.120263
0.0286448
0.210036
0.766588
0.531993
-1.39715
0.0209728
0.380495
-0.649052
0.214502
0.0116068
0.510168
0.230336
0.232709
0.223681
0.277268
0.514557
0.647261
-0.00034234
-0.00479207
-0.00168246
0.00388974
0.00202687
0.011165
0.789314
0.840576
0.863375
0.193825
-0.104143
-0.585225
-0.690443
-0.637256
-0.790743
0.422918
0.428936
-0.471525
0.438874
0.453152
0.213857
0.220549
0.22165
0.225839
0.222056
0.224212
0.292406
-0.123762
-0.177189
-0.0603566
-0.0384309
0.0934353
0.0304904
0.0297704
0.0267373
0.0304532
0.154303
0.20715
0.207731
0.213228
0.222197
0.878214
0.849904
0.87612
0.790561
0.806773
0.744256
0.716694
0.551943
0.573804
0.518014
0.504283
-1.84107
-2.82056
-0.795198
-0.549075
0.00267477
0.0260662
0.0312146
0.361679
0.369412
0.374915
0.392945
0.745614
-0.599659
-0.783428
0.216518
0.212673
0.228278
0.228254
0.223237
0.223055
0.0184478
0.023463
0.00115016
0.0105818
0.00895424
0.497563
0.498722
0.22348
0.2192
0.232563
0.253239
0.239207
-0.00165897
0.287469
0.319268
0.334296
0.500164
0.496873
0.504161
0.620265
0.583526
0.685029
0.70725
0.00439641
-0.00131454
0.0225251
0.0117014
0.0173293
0.191252
0.185741
0.205429
0.198035
0.198264
-0.0992415
-0.188042
-0.136781
-0.215403
-0.520174
-0.609893
-0.626887
-0.640696
-0.801052
0.505987
0.408201
0.414731
-0.455032
-0.386089
-0.536707
-0.328431
-0.407852
0.20031
0.20759
0.204328
0.218609
0.216282
0.218326
0.225387
0.222061
0.22357
0.323256
0.388324
0.257762
0.235891
-0.386465
-0.214002
-0.404245
-0.017838
-0.0114639
0.107007
0.114359
0.0825133
0.0761014
0.00189035
0.02505
0.0118571
0.0305188
0.0331352
0.142508
0.134011
0.163547
0.168794
0.201503
0.201262
0.204221
0.200858
0.668834
0.689594
0.697334
0.671251
-3.84572
-6.70074
-0.214273
-0.0770665
0.00507079
0.00450999
0.00353179
0.00467877
0.00391576
0.0032698
0.0481524
0.0482862
0.0361409
0.0453187
0.34799
0.356698
0.733853
0.799654
0.665043
0.657114
0.206785
0.209309
0.212584
0.20791
0.0294829
0.026254
0.0258181
0.456042
0.478704
0.475462
-0.0412654
-0.130804
0.0453937
0.0693161
0.339059
0.321756
0.338183
0.396233
0.43295
0.714069
0.733616
0.731237
0.740852
0.78405
0.800105
0.765934
0.173315
0.180324
0.177679
0.205847
0.205286
0.203138
0.19954
0.200323
0.200459
-0.323404
-0.707877
-0.15647
-0.320157
-0.338983
-0.34441
0.563493
0.659075
0.386466
0.39808
0.404279
-0.257856
-0.336932
0.2048
0.183858
0.0942147
0.125338
0.109323
0.638535
0.598294
0.64874
0.621551
0.583082
0.609156
-0.660123
-2.22055
-1.304
0.276283
0.0868213
0.177246
0.0705888
0.053425
0.0617233
0.792659
0.837593
0.429156
0.555146
0.534561
0.470102
0.500757
0.557697
0.483955
0.518752
0.552543
0.531946
0.291271
-0.00515306
0.205484
0.701274
0.791591
-0.151106
-0.197442
-0.262375
0.122085
0.155677
0.136452
0.812297
0.793321
0.845597
0.218799
0.221644
0.0107514
0.0154894
0.224352
0.223804
0.00956006
0.00814573
0.155003
-1.07221
-0.170879
0.210695
0.206339
0.219037
-0.0664999
0.281531
0.0295481
0.0945625
0.0670058
0.20825
0.160387
0.125536
0.00479869
0.0281474
0.0206779
-0.319633
0.215612
0.214648
0.218541
0.220567
0.220199
0.00642945
0.00977384
0.00779255
0.0189783
0.0130171
0.0136062
0.190082
0.199954
-0.387372
0.219362
0.221517
0.221078
0.212052
0.220006
0.216184
0.0213801
0.0127188
0.0202221
-0.0403083
0.0671157
0.392815
0.504424
0.336444
0.132747
-0.0944522
0.302959
0.366618
0.270589
0.43023
0.38772
0.424423
-0.10755
-0.246893
-0.0954416
-0.142103
0.209346
0.208131
0.204063
0.199517
0.217854
0.214386
0.218451
0.213466
0.215994
0.217879
-0.0227519
-0.0414012
-0.0804687
-0.154721
0.306265
0.388779
0.238906
0.2414
0.150495
0.0370583
0.0309014
0.0312438
0.0307342
0.0704152
0.0718289
0.0809686
0.0824695
0.0576661
0.0550092
0.0684168
0.0675177
0.0733143
0.203712
0.202529
0.207303
0.211874
0.166842
0.17238
0.14197
0.160316
0.145919
0.0963595
0.12308
0.103873
0.0135333
0.00936631
0.00745899
0.03168
0.0355392
0.0197239
0.0153423
0.0208765
0.0153138
0.0131819
0.0237004
0.0262456
-0.25376
-0.395779
0.725856
0.587674
0.358293
0.211903
0.214245
0.210847
0.212746
0.215391
0.220659
0.218819
0.214637
0.201267
0.202311
0.199796
0.198707
-0.354882
-0.446974
-0.318856
-0.386976
-0.296586
0.319117
0.07534
0.0188232
0.00812827
0.21006
0.565435
0.375887
0.457849
0.477563
-0.569219
-0.207043
-0.524311
0.0754819
-0.0281166
0.403468
0.453948
0.475559
0.423356
0.373406
-0.441429
0.24596
-0.329521
-0.291526
-0.133861
-0.230162
0.460641
0.369848
0.378848
0.413125
0.435652
0.379083
0.356767
0.355967
0.400805
0.400712
0.185175
-0.0140568
-0.0588813
-0.097837
0.355579
0.227541
0.287492
0.202019
0.203565
0.207402
0.20524
0.192825
0.199348
0.197831
0.198586
0.20146
0.210571
0.208547
0.207222
0.209541
-0.0232267
-0.0144029
-0.0270188
-0.206009
-0.176607
-0.264297
-0.0948641
0.140841
0.115069
0.338285
0.409425
0.0848998
-0.0841549
-0.0520637
0.0271457
0.179525
0.178918
0.12547
0.166473
0.182749
0.154317
0.211961
0.199008
0.0516177
0.0630443
0.044586
0.0422795
0.102065
0.120866
0.117775
0.0569449
0.0576925
0.0365972
0.0333511
0.0895984
0.0580053
0.0717041
0.0751432
0.0311748
0.0335132
0.0366553
0.0487458
0.0475636
0.0512527
0.199553
0.200122
0.200414
0.215289
0.22366
0.238174
0.207621
0.186406
0.177367
0.180486
0.161005
0.171171
0.16678
0.173649
0.189504
0.197119
0.197052
0.198168
0.184565
0.186078
0.178006
0.1788
0.160634
0.14113
0.131505
0.0250906
0.0152644
0.0208551
0.0206472
0.01771
0.0196521
0.0506572
0.0419886
0.0467782
0.0415568
0.0472036
0.0242643
0.0226217
-0.10987
0.0259741
-0.366664
-0.323492
-0.450135
0.703422
0.75912
0.589719
0.504694
0.528952
0.634147
0.664966
0.420797
0.504929
0.504334
0.407718
0.726544
0.212628
0.212382
0.208985
0.206584
0.20911
-0.346493
-0.297747
-0.243194
-0.207312
-0.303889
-0.242538
-0.267691
0.27287
0.328529
0.190587
0.312013
0.327461
0.274548
0.301309
0.305478
0.137414
0.203977
0.259623
0.216752
0.254521
0.277286
0.247045
0.273495
0.21742
0.180175
0.180251
0.125675
0.147004
0.125031
0.102808
0.199862
0.178318
0.188467
0.179446
0.203289
0.227037
0.22064
0.237231
0.257077
0.18735
0.153315
0.161373
0.183403
0.15086
0.163717
0.17487
-0.855142
-0.878863
-0.460209
-0.570175
-0.429756
-0.381664
-0.417977
-0.516999
-0.341138
-0.842961
-0.771994
-1.38456
0.168005
0.619711
0.427544
0.353843
0.435623
0.416155
0.420884
0.451887
0.454635
0.34527
0.363071
0.366667
0.325515
0.342398
0.398266
0.383716
0.195219
0.0501428
0.0149339
0.00521257
-0.10902
-0.0772261
0.134743
0.0549425
-0.00866438
-0.000126786
0.172085
0.0660804
0.133955
0.160295
0.0958382
0.0611145
0.248471
0.310167
0.295826
0.276469
0.195916
0.205928
0.239317
0.278923
0.300608
0.333136
0.199637
0.206198
0.206518
0.203643
0.201576
0.203057
0.203312
0.204612
0.206557
0.20683
0.206759
0.0277146
0.0373082
0.00415355
0.0112861
0.0439147
0.0258237
0.0707116
0.0459473
0.0468633
0.0494339
0.0309087
0.00588974
0.0208168
0.0378781
0.175072
0.208433
0.197813
0.147141
0.262133
0.367931
0.425638
0.375437
0.227573
0.249682
0.285273
0.0987629
0.0980156
0.0884644
0.105628
0.109835
0.0448504
0.0419395
0.0445357
0.0492194
0.0500366
0.038914
0.0291302
0.0302148
0.0329031
0.0335058
0.0341742
0.188157
0.182921
0.183295
0.177464
0.177057
0.19002
0.191903
0.193004
0.196385
0.197768
0.190605
0.196004
0.197427
0.0365854
0.0286213
0.0327533
0.0314861
0.0307026
0.0254908
0.0256382
0.202148
0.126257
0.237248
0.0211652
-0.211348
-0.0911311
0.235419
0.298364
0.0593317
0.598002
0.481165
0.229521
0.320672
0.576437
0.383135
0.619935
0.518852
0.721748
0.666315
0.74756
0.615338
-0.338485
-0.0523419
0.0394713
-0.591009
-0.318944
-0.06811
-0.157074
-0.101377
-0.160384
-0.0462322
-0.400473
-0.512764
-0.732681
-0.485356
-0.308276
-0.249881
-0.337366
-0.389711
-0.405551
-0.815284
-0.516398
0.305727
0.325026
0.341507
0.311427
0.337847
0.263439
0.258585
0.274597
0.285756
0.27519
-1.07117
-0.764051
-1.68333
-0.937307
-0.511461
0.266288
0.166481
0.496923
0.365387
0.435774
0.411243
0.373713
0.332486
0.334285
0.373581
0.0550927
0.162205
0.133532
0.152174
0.0599859
-0.00624816
0.28868
0.277612
0.318353
0.338419
0.302297
0.337661
0.198158
0.196812
0.19741
0.194994
0.190532
0.190572
0.117411
0.0829121
0.133827
0.1167
0.0815199
0.0668694
0.0432183
0.0413571
0.03855
0.0370646
0.0388241
0.042735
-0.0857671
0.0227848
-0.0364006
0.0695624
-0.32454
-0.202775
-0.284587
-0.157645
-0.170247
-0.297419
0.459306
0.646799
0.551538
0.622934
0.505701
0.508145
-0.0657127
-0.329912
-0.287991
-0.125326
0.0862372
0.000577913
-0.50408
-0.394713
0.517477
0.566974
0.423983
0.286451
0.0145735
0.172031
0.230704
0.165563
0.214234
0.287841
0.287172
-0.344145
-0.399534
-0.0320974
0.139369
-0.665901
-0.32751
-0.451018
-0.107263
-0.331972
)
;

boundaryField
{
    wall-4
    {
        type            zeroGradient;
    }
    velocity-inlet-5
    {
        type            zeroGradient;
    }
    velocity-inlet-6
    {
        type            zeroGradient;
    }
    pressure-outlet-7
    {
        type            fixedValue;
        value           uniform 0;
    }
    wall-8
    {
        type            zeroGradient;
    }
    frontAndBackPlanes
    {
        type            empty;
    }
}


// ************************************************************************* //
