/*--------------------------------*- C++ -*----------------------------------*\
  =========                 |
  \\      /  F ield         | OpenFOAM: The Open Source CFD Toolbox
   \\    /   O peration     | Website:  https://openfoam.org
    \\  /    A nd           | Version:  9
     \\/     M anipulation  |
\*---------------------------------------------------------------------------*/
FoamFile
{
    format      ascii;
    class       surfaceScalarField;
    location    "8";
    object      phi;
}
// * * * * * * * * * * * * * * * * * * * * * * * * * * * * * * * * * * * * * //

dimensions      [0 3 -1 0 0 0 0];

internalField   nonuniform List<scalar> 
1300
(
3.75095
5.62643
-6.35499
3.75095
-6.23936
5.62643
-4.67255
4.67255
-1.55629
1.55629
1.87846
1.87249
-5.19274
5.19274
-5.25592
5.25592
-2.94436
2.94436
-5.24665
5.24665
-5.06909
5.06909
4.66515
-4.66515
-5.09813
5.09813
-2.02553
2.02553
-5.63604
5.63604
3.1684
-3.1684
-5.32906
5.32906
-0.649626
0.649626
-0.546442
4.2974
3.20451
3.20451
-2.71802
2.71802
-4.86252
4.86252
6.21863
-6.21863
9.62633
-9.62633
-3.27134
-3.35297
1.33498
-8.08932
-4.90438
-4.90438
-8.4405
8.4405
-2.81407
2.81236
3.06121
-3.06121
-1.40071
1.40071
-4.50132
-0.171231
-4.50132
4.94487
-0.272319
4.94487
-1.72747
0.171182
-1.72747
4.1088
-4.1088
1.37872
0.177571
1.37872
3.03392
-3.03392
-1.8788
3.75726
1.87215
-1.86877
6.16617
-1.88218
3.75467
-4.79616
4.79616
-5.34508
0.152338
-5.34508
5.12017
0.0725731
5.12017
-5.29858
5.29858
-5.22043
-0.0354916
-5.22043
5.29075
-0.0348336
5.29075
3.14114
-3.14114
-2.98301
0.0386475
-2.98301
2.8828
0.0615601
2.8828
0.353634
5.2728
-5.98006
8.79242
-5.2728
0.0261457
5.20949
0.0371584
5.20949
-5.10626
0.0371641
-5.10626
5.01291
0.0561794
5.01291
4.77149
-0.106341
4.77149
-4.77279
0.107639
-4.77279
-3.29967
-3.31436
-5.16944
0.071312
-5.16944
-2.05728
0.0317551
-2.05728
2.0234
0.00212949
2.0234
-3.81015
3.81015
-5.65827
0.0222335
-5.65827
3.11526
0.0531437
3.11526
1.86942
1.88153
5.62037
-5.62037
2.45197
-5.31884
-0.0102225
-5.31884
-5.34624
-4.28009
5.34624
-0.0171771
-0.941055
0.291429
-0.941055
3.15369
0.0508175
3.15369
2.8161
0.0667068
-2.8161
0.0980783
3.53572
-3.53572
2.08917
0.62885
2.08917
-5.56631
5.56631
4.95426
0.0586531
-4.95426
0.0917379
6.15727
0.0613514
6.15727
-6.19902
-0.0196019
-6.19902
3.34687
-6.69985
-3.30439
5.00254
0.095588
-5.00254
0.0981558
3.0788
-0.0175942
3.0788
-3.01889
3.01889
-3.04793
-0.0132775
-3.04793
-2.07664
0.67593
-2.07664
0.840651
0.560056
0.840651
-4.36573
-0.135589
-4.36573
-5.32382
-0.334458
5.32382
-0.378946
1.56719
-1.56719
-1.8564
0.128935
-1.8564
-4.2169
-0.148833
4.2169
-0.108104
-4.03069
-0.0781085
-4.03069
-3.03865
-0.00927911
3.03865
-0.00473439
3.08274
0.0709521
-3.08274
0.0488264
-1.87017
3.75171
-1.88078
3.75293
-4.63712
-0.159041
-4.63712
4.9674
-0.171235
4.9674
5.54111
0.0949272
-5.54111
0.196032
5.12194
-0.00177421
5.12194
-5.28088
-0.0177065
-5.28088
5.315
-0.0164172
5.315
5.1805
-0.0585504
-5.1805
-0.0399322
5.31265
-0.0218935
5.31265
3.18243
-0.0412952
3.18243
-3.11466
-0.026477
-3.11466
3.00621
-3.00621
2.98982
0.0163876
-2.98982
0.00680955
-11.1327
11.1131
-0.035468
-11.0972
5.17402
5.17402
4.25454
0.516954
4.25454
-4.99244
0.219648
-4.99244
3.30975
-6.61414
3.26917
-6.56884
3.35776
-11.4471
3.33836
-6.65272
5.25991
-5.25991
5.2145
0.0454124
-5.2145
0.0450631
-2.05548
-0.00180062
-2.05548
-3.59084
-0.219309
-3.59084
4.09347
-0.283323
4.09347
-3.00682
3.00682
-3.04987
0.0430517
3.04987
0.0653938
5.31127
0.0013775
-5.31127
-0.00757022
1.17059
0.208131
-1.17059
0.22953
3.7226
-0.186878
3.7226
-3.34149
-0.194233
-3.34149
-2.0621
0.00662245
2.0621
0.0270628
-5.8155
0.249198
-5.8155
-11.1899
0.0927261
-11.1528
-6.1063
-6.1063
2.33421
11.1266
-3.10001
-0.0146519
3.10001
-0.0212076
3.0008
0.0060161
-3.0008
-0.0180869
-3.02289
0.0166861
3.02289
-0.00400807
-2.59622
0.519581
-2.59622
-0.602087
0.602087
-0.529395
-0.0726918
0.529395
0.311256
2.09696
-0.529768
2.09696
1.96306
0.0603418
-1.96306
0.106652
-3.93726
-0.0934308
-3.93726
5.15345
-0.186056
5.15345
-3.23204
-0.109443
3.23204
-0.0496102
-0.0339471
11.147
-5.14008
0.0338188
5.14008
-11.2084
11.2422
-3.31322
0.717
3.31322
0.941318
5.28629
0.280012
-5.28629
0.293856
5.2994
0.0156033
-5.2994
0.0394856
-3.33064
-0.260196
-3.33064
-4.38397
-0.253154
4.38397
-0.290496
-11.474
-0.203268
11.6773
-11.4179
6.01877
0.138504
-6.01877
11.3807
-1.0479
-0.51929
1.0479
-0.445816
2.50941
-0.412453
2.50941
3.87064
-0.148049
-3.87064
-0.0666113
-5.26671
-0.0141652
5.26671
-0.113259
-2.96066
-0.369979
2.96066
-0.451251
-4.26477
4.31559
1.9014
-3.33418
-3.36567
-7.61427
1.83997
1.91174
4.29194
-7.04513
-4.40196
-6.94697
7.26526
-6.9714
-9.21749
9.11115
7.40432
-7.48243
-5.75775
5.82314
6.35433
-6.35906
1.88156
1.8757
10.6196
-10.4672
-10.4084
10.2494
10.2304
-10.2659
10.688
-10.7057
-12.3206
12.3362
-5.70642
5.74507
-6.61171
6.58523
-6.73833
6.68872
-3.3606
-3.20823
9.0018
-8.93049
11.7334
-11.7436
-10.8601
10.8823
3.34496
0.970629
3.41591
-1.88543
3.76699
-1.86925
3.77064
3.27702
-6.63762
3.33712
-6.70279
6.03397
5.69944
-6.01679
-1.59748
-5.86468
5.84708
-5.83043
5.82642
8.12156
-8.29279
-1.88838
3.76408
-1.86455
3.77629
-3.4032
-2.35454
3.35006
0.941876
5.55826
3.44354
-5.65385
-1.29313
-7.53014
7.38209
-7.84547
7.65124
-0.445365
5.83087
-5.3855
4.41716
-1.57788
7.40874
5.68738
5.90703
5.86793
-5.58792
1.10347
-6.48898
-6.39724
-2.66118
2.79012
2.63267
-2.4551
5.73455
1.66977
5.62645
-5.40273
-2.0797
-5.49616
3.80864
2.0145
3.8517
4.04042
2.31391
4.03114
3.04549
-3.02628
-0.0192026
-3.10143
6.14691
0.737799
-5.45597
-4.51409
6.87468
3.74488
6.94725
-7.12607
-3.34115
-6.93003
-6.3099
-4.09851
-6.56305
6.63697
3.61239
6.46574
-7.93624
7.82298
6.80577
3.42463
6.77094
-6.79457
-3.47132
-6.83451
10.4279
-2.69231
-7.7356
-6.90503
-5.41557
6.92145
3.7665
7.48303
4.85318
7.52251
3.57568
6.85223
-7.34219
1.92662
-3.82672
-1.8797
-3.81991
3.70531
2.03976
3.76687
-4.14822
-2.46349
-4.16288
-4.19212
-2.5462
4.23342
2.35182
-4.29004
-3.55543
4.39949
2.28923
2.98244
-7.3844
3.67028
-6.87851
-6.25359
-2.6769
-6.20852
4.03433
2.68811
-6.72244
-2.60329
10.9036
-5.20413
9.30608
-7.30853
-4.43509
-7.3161
-7.60549
-3.25458
-7.93995
-5.87785
5.61766
-5.96519
5.68187
11.0418
-5.3373
-5.70451
-3.8843
-2.47476
3.83547
-0.419564
-3.78107
3.76187
-0.0140881
3.75656
4.72719
4.30762
-3.85673
-1.9737
-3.87481
3.83054
1.99589
3.84722
6.56412
1.55745
6.2918
-5.95826
-2.33453
-6.09385
9.49562
-8.81969
2.94419
-2.93757
5.10039
2.55084
-4.91352
-2.61662
5.94048
-2.93135
-3.00913
-12.2967
10.4957
1.80099
-4.88791
-0.470757
0.17887
-5.46789
-3.74959
5.36026
0.546773
11.0424
7.29285
-5.5129
5.7621
6.1644
6.22305
-0.174183
6.01328
-5.29628
5.54677
-2.44575
-3.10101
4.99839
-5.14722
-1.09546
-5.09724
4.00178
0.47923
1.8386
-1.54717
-2.1693
-0.491883
-2.06265
1.60026
1.03242
1.80839
1.00041
1.78971
-2.86607
0.494215
2.37185
-1.86566
-1.96089
-3.54473
-1.02518
4.56991
5.39644
1.98565
-5.32983
-0.166333
2.82227
-2.82014
-0.824142
-2.72058
1.94524
-2.76938
-3.39821
-1.84756
5.24577
-3.34871
-0.526103
3.34269
0.509002
-3.7643
-2.10037
3.77758
0.253558
-3.06699
6.12307
-3.05608
-5.0407
2.55379
3.59312
4.56829
-4.86499
2.47667
2.38832
-1.27187
5.94719
1.00006
5.94541
-9.16481
5.82366
7.53626
3.34606
-7.63118
0.70115
-8.46366
9.65959
-8.24311
-1.41648
5.11169
4.54791
5.31233
5.72947
-4.00184
9.31417
-0.820912
-7.4222
9.28458
-5.93852
5.23749
-11.176
-10.967
3.54477
-6.89924
8.52711
-1.62787
-2.48667
-5.44957
9.38591
-0.830116
-8.55579
5.63562
-5.33744
-5.27513
10.6126
-8.02975
8.74645
-2.64945
-6.097
-6.6747
-4.03096
6.68887
1.13411
-9.86827
11.7949
-3.01605
5.90887
0.862066
5.88698
3.918
-6.02334
2.10534
4.11175
-6.7612
2.54347
-8.56681
-4.79338
9.42439
-4.63101
-7.47028
-6.6569
-0.813376
2.01947
9.77542
-6.87265
5.2975
1.57515
3.31927
0.527952
-3.33566
-0.484249
0.330077
4.42369
-4.75377
4.09695
4.16366
3.27573
1.14796
3.8144
2.03269
-3.79319
-0.369686
-4.00931
1.46311
-1.6575
-3.39071
4.85382
-3.86275
0.472037
-2.62327
-3.44831
6.07158
-4.50298
3.04695
3.07613
5.04283
-4.75453
1.30622
-2.3413
-2.41323
2.55652
-4.21402
1.82312
3.0307
4.11235
0.556925
4.75344
4.67096
-7.44154
0.563028
8.11449
-6.82137
1.6677
5.85481
-6.9652
0.308298
-5.90022
1.14912
-6.35325
-5.57331
5.21704
-8.47162
-5.95897
6.63522
-0.343424
-6.25627
-1.68368
-3.89525
-1.9826
-4.26523
-1.81771
-4.14748
-5.81955
-1.25086
-4.56868
4.36679
-4.43368
-2.12937
4.72417
0.957694
-5.91683
5.39754
-5.01128
4.59883
0.0560231
3.70585
4.36364
1.88888
-2.43398
4.32286
-4.17332
5.73076
-6.56488
2.39156
3.80854
-6.14308
-2.75634
5.00079
4.49483
5.56084
7.89184
-12.9632
5.07139
-11.164
10.1168
1.04711
-15.8867
4.72271
-7.99483
2.72526
0.218936
2.72346
0.657653
2.32445
-2.98211
-2.27992
-2.25285
-2.15549
-3.23426
5.38975
1.01757
-3.19384
2.17627
-3.3522
4.36977
-0.0123354
-3.18151
5.18396
-2.8595
5.4029
-3.36454
2.03836
3.08097
5.33699
-2.25602
4.18487
-1.63403
1.66601
-3.92203
-1.56825
-2.95663
4.99639
-3.11495
3.58699
-0.24262
3.82961
-3.88011
0.948761
-0.604383
3.55927
3.65735
4.16251
-3.01454
2.76866
-4.40269
-1.15337
-3.84576
-0.815067
-0.890782
-4.34078
5.23156
6.72127
-7.61205
-5.73508
10.3052
-4.57012
8.02191
-5.51612
-2.50579
-4.42936
-4.39033
3.90978
2.1035
10.1254
0.239316
-5.75544
-5.05696
-4.11564
3.14168
2.40509
-1.98394
3.78493
1.80507
0.0335279
0.627946
1.18044
1.86598
-1.23803
0.137194
1.72878
-1.40997
2.11315
0.709119
-2.17349
0.110842
-1.39277
3.33801
0.979077
-2.01149
0.773462
1.06118
-3.50694
4.87449
-2.64788
-2.22661
5.93568
0.897604
-3.54549
4.19964
-3.72041
2.17628
-3.20146
-1.36921
-5.08961
-3.41984
-2.33423
4.5105
-3.05552
5.04117
1.11229
-4.87484
5.98712
-3.32838
1.48083
-3.01482
3.72394
-1.04139
-1.97343
2.63483
2.61094
-2.82352
0.102933
-0.188691
2.17553
-2.36422
-0.59385
-2.45951
-4.57212
4.82568
-2.06465
4.54132
2.25821
-1.89881
6.44013
1.83762
-3.73643
-3.20308
-3.72918
-1.34811
3.22018
-1.00542
-5.82909
-7.10242
5.88764
0.0577746
-9.14511
10.2623
-1.1172
-5.40023
-0.42343
5.53512
-7.51051
0.74931
-4.96704
5.29527
6.29533
6.35311
-8.46956
-0.0862314
-4.85717
1.31509
-6.17227
5.863
-3.06626
6.61103
-7.2056
5.07623
-6.24791
5.19454
-0.977723
5.57822
-3.47288
2.15738
-6.18834
-5.05423
6.96827
-3.54363
7.83033
-4.0529
11.8832
-7.06894
6.90652
4.97671
-1.37189
-5.94422
-6.85066
5.47877
0.0558625
5.94284
4.84832
-2.81564
4.47864
2.19887
-4.54017
-2.01515
-6.36984
1.82967
-3.29371
-1.85355
3.68322
3.18928
3.71724
1.26999
-3.23299
6.59307
-7.40644
-1.96205
-3.61126
6.76745
-1.28868
4.02089
-7.63215
-2.33236
6.39586
-2.3226
-4.07326
-1.05856
-4.90041
3.7736
-8.67401
4.69803
-6.38171
1.87279
-9.86762
-4.04404
-4.48986
-1.63349
-3.37779
-6.21269
4.5792
-1.48998
3.90756
-7.91012
5.58751
-2.20673
6.78593
-3.39637
-0.868858
3.84762
0.751208
7.53713
1.49492
-4.25125
-2.68481
4.58351
-1.8987
0.456871
-2.84586
1.73765
2.38511
3.55057
-6.3869
0.243817
-4.00744
-3.73141
8.22624
6.57379
13.2951
0.331819
9.75845
-1.53221
10.0903
4.02864
4.33989
-2.67607
7.74747
2.55549
4.94705
-0.841653
2.88001
1.8818
1.91356
0.906578
2.21782
1.43953
3.16658
0.184475
-2.06838
4.60512
-8.72076
-1.15032
-8.2038
0.907343
5.6005
-4.69316
3.64068
-1.23559
1.74197
0.315951
-1.92508
1.60912
-2.78506
-1.89155
-0.162766
-1.52247
2.29593
1.81554
-2.13316
-0.651898
0.280987
-3.70083
2.92047
-2.81754
-0.206595
5.78053
-2.57667
0.212452
-1.09584
-2.24705
-2.73894
2.62809
6.13099
0.309138
3.07491
5.13481
3.03444
0.218803
4.42826
-6.05613
-4.13856
-6.14236
-0.279361
5.25576
2.02881
7.74661
7.00551
5.71683
-1.91532
-9.32176
6.80634
0.941131
7.85345
-3.78019
-4.89382
4.85109
0.879669
-4.50767
-1.87404
-6.76785
-5.82672
-0.677473
6.26499
-6.85966
5.9908
4.0082
0.56048
-3.90564
-0.584212
3.97834
0.361559
10.4518
-0.957687
-6.75815
7.71584
-4.64282
3.49249
1.12342
2.66151
2.73254
1.49696
-5.2612
-9.95436
-1.9147
-1.59224
-4.14131
0.428593
-2.24413
6.30123
-2.80873
3.79543
4.90711
6.64908
-2.18997
-5.42208
6.76009
-2.96465
3.68443
)
;

boundaryField
{
    wall-4
    {
        type            calculated;
        value           uniform 0;
    }
    velocity-inlet-5
    {
        type            calculated;
        value           uniform -3.75095;
    }
    velocity-inlet-6
    {
        type            calculated;
        value           uniform -5.62643;
    }
    pressure-outlet-7
    {
        type            calculated;
        value           nonuniform List<scalar> 8(6.35499 6.23936 6.62432 6.75434 6.61403 6.65126 6.57892 6.69613);
    }
    wall-8
    {
        type            calculated;
        value           uniform 0;
    }
    frontAndBackPlanes
    {
        type            empty;
        value           nonuniform List<scalar> 0();
    }
}


// ************************************************************************* //
