/*--------------------------------*- C++ -*----------------------------------*\
  =========                 |
  \\      /  F ield         | OpenFOAM: The Open Source CFD Toolbox
   \\    /   O peration     | Website:  https://openfoam.org
    \\  /    A nd           | Version:  9
     \\/     M anipulation  |
\*---------------------------------------------------------------------------*/
FoamFile
{
    format      ascii;
    class       volVectorField;
    location    "8";
    object      U;
}
// * * * * * * * * * * * * * * * * * * * * * * * * * * * * * * * * * * * * * //

dimensions      [0 1 -1 0 0 0 0];

internalField   nonuniform List<vector> 
918
(
(0.985172 -0.00218842 0)
(0.00501554 2.96625 0)
(0.00130529 1.69384 0)
(0.97845 0.00382724 0)
(-0.00507841 1.66333 -3.62951e-21)
(-0.00702052 2.9488 -1.92522e-18)
(0.886262 1.20828 6.66152e-19)
(0.522275 0.275124 -9.57823e-21)
(1.00005 -0.000601425 0)
(0.0542064 1.54596 0)
(-0.00914108 1.5722 0)
(0.880347 0.00431938 0)
(0.0108883 2.93055 0)
(0.00127274 2.79563 0)
(-0.0141209 3.15073 1.0277e-18)
(0.000336628 1.60595 -2.1784e-20)
(0.644486 0.122699 5.84717e-19)
(0.233616 1.7806 5.15172e-19)
(0.965925 0.0173047 0)
(-0.000172461 1.5995 0)
(0.215851 0.31561 -4.99068e-19)
(1.00172 -0.00446581 0)
(1.00059 -0.00837489 0)
(0.97615 -0.00471665 0)
(0.813716 -0.0277603 0)
(0.0116536 2.63998 0)
(-0.0149361 2.91049 6.70815e-19)
(-0.00993176 1.70392 0)
(-0.00312037 1.76632 0)
(-0.00761137 1.71701 0)
(-0.00305912 1.80065 0)
(-0.00462514 1.6822 2.87515e-21)
(0.00067736 1.61361 0)
(-0.020684 2.9876 -6.7547e-23)
(-0.0167105 3.00534 1.49735e-18)
(0.00210221 3.00026 0)
(0.920482 0.00473718 0)
(0.239305 0.800373 -6.48606e-20)
(0.83254 1.26267 -8.62475e-19)
(0.99605 1.04298 8.70566e-19)
(0.703455 1.43429 -1.49416e-19)
(0.763592 1.38841 8.60093e-19)
(0.571195 0.334826 9.34581e-21)
(0.571661 0.238118 0)
(1.2017 0.571112 0)
(0.517493 0.339204 4.35793e-20)
(0.494044 0.264111 -4.5219e-20)
(0.914702 0.000661052 0)
(1.00075 0.000274969 0)
(0.999989 0.000412977 0)
(1.00185 -0.00681624 0)
(1.00112 -0.00225218 0)
(1.00027 -0.000735886 0)
(0.0199247 1.54463 -5.60916e-19)
(0.0389921 1.67048 0)
(0.0900542 1.57696 0)
(0.0111512 1.65468 0)
(0.0219369 1.50156 0)
(-0.00113698 1.61199 0)
(-0.0130796 1.65324 0)
(-0.00791039 1.55884 0)
(-0.0115236 1.67327 0)
(-0.00428274 1.58234 0)
(0.943013 0.00673539 0)
(0.9365 0.00682321 0)
(0.893603 -0.00142048 0)
(0.92561 0.0157401 0)
(0.859499 0.0150516 0)
(0.0147419 3.00033 7.0596e-19)
(0.0116653 3.00751 0)
(0.00623823 3.00283 0)
(0.0135427 2.99711 7.88891e-24)
(0.00803243 2.95857 -1.04923e-18)
(0.0142821 2.98239 0)
(0.0104575 2.90422 0)
(0.0250703 2.93024 1.42926e-24)
(0.00411307 2.82525 0)
(0.0316177 2.91549 0)
(-0.00843307 2.74714 0)
(0.320488 3.56056 0)
(-0.128055 3.64438 0)
(0.147089 3.24465 -9.56393e-19)
(-0.0170129 2.97724 0)
(-0.000995294 1.76326 0)
(-0.00155609 1.68392 2.14929e-20)
(-0.00180969 1.61281 -3.05619e-20)
(0.697515 0.167932 -2.00819e-19)
(0.668134 0.0848239 -1.94318e-19)
(0.683026 0.193602 -6.04483e-19)
(0.644716 0.147993 -4.07744e-19)
(0.234231 1.30227 0)
(0.286611 1.84077 -5.82222e-19)
(0.443022 1.7618 9.48236e-19)
(0.983898 0.0135229 0)
(0.93901 0.015507 0)
(1.00065 0.000301182 0)
(1.002 0.00939584 0)
(1.00024 0.0143708 -1.12379e-18)
(0.991087 0.0106685 8.5659e-19)
(-0.00313769 1.67459 0)
(0.0011326 1.60022 0)
(-0.00668829 1.72605 0)
(-0.00455246 1.68648 0)
(-0.00147329 1.6042 0)
(0.323121 0.330944 1.59428e-19)
(0.340042 0.286118 0)
(0.994334 -0.00828215 0)
(0.956082 -0.00490607 0)
(0.896612 0.0179284 0)
(0.874952 0.00784719 0)
(0.842742 -0.0111007 0)
(1.05711 0.00311565 0)
(0.839275 0.0258731 0)
(0.756425 0.00645122 7.87906e-19)
(-0.0363328 2.86311 3.66664e-19)
(0.0432547 2.90834 0)
(0.0557823 2.884 0)
(-0.00901379 2.70089 0)
(-0.0133045 2.98528 6.17846e-19)
(-0.0183616 2.89569 0)
(-0.0152965 2.98753 -1.95107e-18)
(-0.0137728 2.9257 6.73002e-19)
(-0.00257479 1.78799 0)
(0.00232511 1.77341 0)
(0.00138876 1.68741 -6.35547e-22)
(0.00447188 1.68204 0)
(0.00458147 1.60436 0)
(0.964415 0.00591528 0)
(0.924849 0.0070609 0)
(0.904881 -0.0106407 0)
(0.964184 0.000392633 0)
(0.914896 -0.00655658 0)
(0.339947 1.05408 7.96672e-20)
(0.462981 1.17452 0)
(0.1616 0.632384 -1.08715e-20)
(0.176469 0.343673 0)
(0.952775 1.10025 -2.49353e-19)
(1.06527 0.886209 5.27114e-19)
(0.408911 1.7626 0)
(0.563513 1.6129 0)
(0.636034 1.59073 0)
(0.309404 0.410813 -2.49966e-19)
(0.613563 0.295849 0)
(0.600125 0.216039 1.18031e-19)
(1.04053 0.941752 0)
(1.11857 0.784965 0)
(1.13984 0.728246 -4.70796e-19)
(1.18723 0.627951 0)
(1.2398 0.419441 6.49789e-20)
(0.96092 -0.000948815 0)
(0.952827 0.00156501 0)
(0.914007 0.00194234 0)
(0.980244 -0.00634546 0)
(0.958457 -0.0011468 0)
(0.92892 -0.000295687 0)
(0.99968 0.00184597 0)
(1.00084 0.00244471 0)
(0.999686 0.00107084 0)
(0.00852131 1.60854 3.02487e-19)
(0.0439353 1.52818 0)
(0.00954067 1.63257 5.06416e-19)
(0.0183816 1.56982 -4.3866e-19)
(0.123061 1.79261 -4.262e-19)
(0.0467668 1.71786 0)
(0.180424 1.68494 0)
(-0.00434001 1.63839 0)
(0.000921187 1.51558 0)
(-0.00545734 1.68187 -1.39371e-21)
(-0.0066924 1.61746 0)
(-0.0020271 1.69047 -6.86731e-20)
(0.000258797 1.61884 1.31874e-19)
(-0.0157614 1.64661 0)
(-0.0115295 1.65156 0)
(-0.0035551 1.54224 0)
(-0.00582909 1.68031 0)
(0.00346187 1.58704 0)
(0.999365 0.0100928 0)
(0.958645 -0.00141899 0)
(0.982003 0.00848257 0)
(0.937324 0.00548795 0)
(0.897659 0.00191474 0)
(0.950942 0.00749254 0)
(0.945071 -0.0019973 0)
(0.894401 -0.000814652 0)
(0.00688251 3.06245 -6.25695e-21)
(0.0164849 3.05897 0)
(0.0148764 2.9699 0)
(0.00893945 2.87639 0)
(0.955619 3.99285 0)
(1.2761 3.33801 1.00848e-18)
(0.0680536 3.06965 0)
(-0.0299494 2.90339 0)
(0.00708677 1.75962 0)
(0.00576865 1.74951 0)
(0.0030242 1.75387 0)
(-0.00139897 1.78845 6.21705e-21)
(0.00304942 1.77734 0)
(-0.00427002 1.78511 0)
(-0.00100154 1.60388 2.23372e-21)
(-0.000882159 1.68383 4.19442e-20)
(0.000220798 1.68354 3.12521e-20)
(0.00449614 1.60148 0)
(0.72541 0.124096 2.97159e-19)
(0.680718 0.0456046 -2.87899e-19)
(0.188334 1.40788 0)
(0.301316 1.24175 -2.48486e-19)
(0.138828 1.44581 -7.29681e-19)
(0.165159 1.36457 7.28058e-19)
(0.895665 0.00411079 0)
(0.957802 0.00973024 0)
(0.97204 0.0166939 0)
(0.911815 0.0129382 0)
(0.00296815 1.68124 0)
(-0.00198407 1.67743 0)
(0.00322641 1.59246 0)
(0.473678 0.353839 4.03009e-19)
(0.423844 0.345944 -4.94798e-19)
(0.430344 0.264634 0)
(1.17561 0.0820054 -2.12944e-21)
(1.1618 0.036091 0)
(1.08631 0.0396315 0)
(1.00379 0.00798391 0)
(0.743362 0.0961234 0)
(0.780187 0.0760528 -1.26197e-18)
(0.707001 0.0409391 4.80551e-19)
(0.00932898 2.98153 4.49462e-19)
(-0.0323226 2.86635 4.78522e-20)
(0.00386751 3.04912 -1.34586e-20)
(0.019399 3.04382 4.85589e-19)
(-0.0152847 2.99609 2.23242e-20)
(-0.0125037 2.94924 -9.06754e-23)
(-0.0172448 3.01207 -4.22976e-19)
(0.0142572 3.02493 3.0463e-19)
(0.00686369 3.03615 -4.77558e-19)
(0.982472 0.00517638 0)
(0.976939 0.0067325 0)
(0.929569 0.00390464 0)
(0.953254 0.00425542 0)
(0.952313 -0.00829999 0)
(0.896987 -0.0072008 0)
(0.955408 0.00335578 0)
(0.953378 -0.00357684 0)
(0.9051 -0.00617612 0)
(0.67182 1.43091 3.20655e-19)
(0.737679 1.55992 0)
(0.0912633 -0.0031834 -1.14824e-20)
(0.31414 0.404716 -3.42231e-19)
(0.221451 0.418317 2.15533e-19)
(0.0836654 0.0575645 -4.51335e-19)
(0.399525 0.88011 1.32858e-18)
(0.390944 0.694264 3.32838e-19)
(0.669421 0.240028 4.41463e-19)
(0.640974 0.273967 1.07423e-19)
(0.623176 0.192184 2.24661e-19)
(1.22631 0.468245 2.82434e-19)
(1.24991 0.256772 3.00855e-19)
(0.0128858 1.66109 2.03044e-19)
(0.0169244 1.61395 0)
(1.03449 0.0238465 0)
(1.00488 0.0104143 0)
(0.973368 0.00288114 0)
(0.010888 3.07536 0)
(0.0200957 2.94404 8.35551e-19)
(0.0170033 2.95677 0)
(0.00654391 2.85062 -8.28592e-19)
(0.00542443 3.09194 1.98648e-19)
(0.0074159 3.08169 0)
(0.796321 1.87316 -2.29932e-19)
(1.28546 2.54826 6.40855e-19)
(0.791168 2.01239 -1.47748e-18)
(0.0201492 2.98187 -3.40563e-19)
(0.0343472 3.0007 0)
(-0.0341825 2.8767 0)
(-0.0018551 1.68132 -5.95671e-21)
(-0.00474958 1.6875 -9.44077e-20)
(-0.00129365 1.61236 -7.39958e-21)
(0.253472 1.34198 7.93855e-19)
(0.349089 1.18743 -5.39128e-19)
(0.0335477 1.57636 4.93265e-19)
(0.0824174 1.52082 -6.03664e-19)
(0.0965252 1.45711 6.84031e-20)
(0.00490113 3.11799 -1.05372e-18)
(0.0117664 3.11853 1.14727e-18)
(-0.00911765 2.98091 5.41734e-19)
(-0.00401315 2.97725 -4.84095e-19)
(-0.0217132 2.88106 -5.5175e-19)
(0.00793788 3.09923 -1.45676e-18)
(0.00136836 3.10545 1.45665e-18)
(0.475301 0.74115 0)
(0.46343 0.528772 -1.23691e-19)
(0.201093 0.128888 9.84567e-20)
(0.405064 1.01642 9.69166e-19)
(0.404024 0.872632 -1.48548e-18)
(1.25154 0.171753 -4.79312e-20)
(1.25187 0.309451 0)
(1.23985 0.122855 1.16228e-19)
(-0.0115225 1.69668 -1.65229e-21)
(0.000883728 1.68729 0)
(0.00120052 1.62996 0)
(0.319101 1.25538 -2.77144e-19)
(0.367877 1.13113 -6.63762e-19)
(0.396046 1.05894 1.18809e-18)
(1.0062 -0.0181066 0)
(1.00515 -0.00564971 2.05998e-19)
(-0.00497575 1.78688 0)
(-0.0100129 1.79224 0)
(1.00239 0.0040222 1.61102e-21)
(1.00003 0.0122535 4.15952e-19)
(0.00208584 1.78908 -7.97073e-21)
(-0.000939297 1.78955 0)
(0.0339734 3.17929 1.4501e-19)
(0.395249 3.47457 0)
(1.11224 0.644231 6.06431e-20)
(1.01227 0.0163349 -1.40214e-21)
(1.00364 0.000552955 0)
(1.00296 -0.000908999 4.34456e-22)
(0.0478874 1.83077 0)
(0.0340406 1.73765 0)
(-0.00442595 1.79776 0)
(0.00488987 1.78259 9.20928e-20)
(-0.00185925 1.78466 4.81071e-20)
(0.994532 0.0185004 1.88336e-21)
(1.04386 0.00634546 0)
(1.07102 0.0217949 0)
(0.0148353 1.7561 0)
(0.00647793 1.7793 0)
(-0.0021605 1.79105 0)
(0.16077 1.86744 -2.49122e-19)
(1.00935 -0.0235713 0)
(1.00161 -0.0299739 0)
(1.00651 0.00186231 2.6053e-19)
(1.00231 -0.00497246 -3.14041e-19)
(1.00224 -0.00258149 0)
(0.00883792 1.75989 0)
(-0.00234346 1.78582 0)
(0.00728257 1.76673 0)
(-0.00110322 1.79128 0)
(-0.00454177 1.78717 0)
(-0.00417434 1.79035 0)
(1.02208 0.00316571 0)
(1.0168 0.00382721 -7.45419e-22)
(0.674494 1.1687 4.28951e-19)
(1.0029 0.00184914 -2.59131e-19)
(1.00365 0.00831234 3.12146e-19)
(1.00095 0.00241588 0)
(1.01144 0.0129653 2.52049e-19)
(1.00577 0.0119311 -3.14263e-19)
(0.994602 0.0131561 0)
(0.00569114 1.78502 0)
(0.000914131 1.78939 2.04456e-20)
(-0.00322309 1.78313 -1.44895e-20)
(1.15866 0.246036 -1.2605e-20)
(1.10145 0.0847041 0)
(0.0485029 3.08227 -5.43126e-19)
(0.0640646 2.85416 -4.31567e-20)
(0.131055 3.19975 7.52166e-19)
(0.131556 3.22362 -2.75062e-20)
(0.131149 3.22375 0)
(0.0192444 3.13833 1.25253e-19)
(0.0730215 3.16226 5.34226e-19)
(0.0675971 3.18647 -2.40566e-19)
(0.0232512 3.12964 0)
(0.694755 0.349857 0)
(0.610094 0.395976 0)
(1.06311 0.656489 -2.29783e-19)
(1.05714 0.785022 3.60361e-19)
(1.11485 0.543636 0)
(1.16453 0.515413 0)
(1.01235 0.0144701 -4.63358e-19)
(1.01314 0.0121956 5.95459e-19)
(1.0084 0.0063844 0)
(1.01037 0.007083 0)
(1.00858 0.00156633 0)
(1.01629 0.00861171 0)
(1.00554 -0.00107299 0)
(1.02058 0.0126564 0)
(1.01462 0.0115354 0)
(1.01082 0.00316904 0)
(0.0454633 1.8261 0)
(0.0245454 1.82329 0)
(0.059706 1.85334 0)
(0.0466832 1.85127 0)
(0.0371421 1.72781 0)
(0.0521803 1.72541 -3.30382e-19)
(0.0314821 1.74928 0)
(0.0351821 1.74629 1.63547e-19)
(0.0297263 1.76933 -1.7384e-19)
(-0.00472727 1.7991 0)
(-0.00559992 1.79788 0)
(-0.00783548 1.79923 0)
(-0.00995764 1.80587 0)
(0.00317329 1.78168 -5.46128e-20)
(-0.000754176 1.78558 6.58641e-20)
(0.00597543 1.78879 8.29207e-20)
(0.00474596 1.78843 0)
(-0.00475989 1.78593 -1.1226e-19)
(-0.00379374 1.78294 -6.42384e-20)
(0.00482871 1.78059 4.44094e-20)
(-0.00290856 1.77906 -8.80561e-20)
(0.00605401 1.78662 -1.01972e-19)
(1.00509 0.0147064 4.57013e-19)
(1.00874 0.00614579 -5.75187e-19)
(0.998988 0.0242302 -4.82794e-19)
(0.985583 0.0171464 6.01859e-19)
(1.04018 0.011451 0)
(1.04249 0.00281219 0)
(1.05668 0.0280143 0)
(1.04299 0.00493911 0)
(1.05875 0.0117008 0)
(1.08923 0.0668195 0)
(1.071 0.0447894 0)
(1.09271 0.0356379 0)
(0.00764978 1.78068 -2.61446e-21)
(0.0188543 1.75793 0)
(0.012357 1.77019 0)
(0.00706335 1.78102 2.00184e-20)
(0.00745853 1.78132 -8.73065e-22)
(0.00595487 1.76724 2.0263e-20)
(0.00291222 1.77104 -2.04708e-20)
(-0.00096241 1.78801 0)
(-0.000514623 1.78725 0)
(-0.00189281 1.78583 0)
(-0.00231274 1.79172 0)
(-0.00254182 1.79124 0)
(0.233096 1.82549 4.09259e-19)
(0.260098 1.76961 2.11327e-19)
(0.345725 1.61824 -1.99301e-19)
(0.167579 1.66606 4.92294e-19)
(0.21126 1.79959 1.33499e-19)
(1.00301 -0.00667794 0)
(1.00317 -0.0270286 0)
(0.991935 -0.0252316 0)
(1.0198 -0.010321 0)
(1.01151 -0.0128831 0)
(1.00724 -0.0161251 0)
(1.00795 -0.0200188 0)
(1.00682 -0.0184237 0)
(1.01882 0.000312192 4.45731e-19)
(1.02122 -0.0017509 -5.64115e-19)
(1.016 0.00677749 -4.38353e-19)
(1.01427 0.00604349 5.55299e-19)
(0.676611 1.23874 0)
(0.556198 1.34603 4.69418e-19)
(0.794864 1.09867 3.0453e-19)
(0.839076 1.09206 -4.09359e-19)
(1.025 2.74247 -8.70623e-19)
(0.831677 0.121082 2.99748e-19)
(1.10549 0.0905857 0)
(1.1478 0.166188 1.6251e-20)
(1.14319 0.150844 1.56795e-21)
(0.96798 0.115338 0)
(0.113359 2.97918 1.79089e-19)
(0.112577 2.89186 -6.55753e-19)
(0.0360038 2.37897 4.84668e-19)
(0.132118 0.190487 -2.00733e-19)
(0.347138 3.40707 -3.81263e-19)
(0.18978 3.30495 0)
(0.23541 3.33669 4.96536e-19)
(0.243688 3.03332 -8.07707e-19)
(0.307731 3.17078 0)
(0.00634872 3.12088 2.84202e-20)
(0.0172115 3.12922 -3.5529e-19)
(0.0148016 3.12531 5.22931e-19)
(0.0350184 3.13962 0)
(0.0336178 3.15081 0)
(1.23959 2.6891 0)
(0.593755 0.843161 -2.76345e-19)
(0.966822 0.936892 -1.89473e-19)
(0.911304 0.962163 0)
(0.794179 0.898634 6.06258e-20)
(1.02426 0.826411 2.58824e-20)
(0.392326 0.455404 -6.06604e-19)
(0.723642 0.339691 -2.26729e-20)
(0.737691 0.309513 2.30429e-19)
(0.615799 0.429424 1.88847e-20)
(0.566021 0.423278 -7.75782e-19)
(0.690728 0.371651 0)
(0.685217 0.427211 3.82995e-19)
(0.681189 0.414875 0)
(0.639192 0.42316 0)
(0.660564 0.371391 0)
(0.755623 0.572955 1.34257e-19)
(1.15438 0.258377 -7.54088e-22)
(1.15371 0.382684 0)
(1.18643 0.357548 0)
(0.799493 0.213967 3.48855e-19)
(0.780964 0.539113 -1.96191e-19)
(0.692619 0.489634 3.1691e-19)
(0.879537 0.405259 -3.01014e-19)
(1.02144 -0.00453881 3.08349e-19)
(1.01679 0.00272151 -3.26266e-19)
(1.01877 -0.00134707 0)
(1.02254 0.00747141 0)
(1.01412 0.0120138 -2.96157e-19)
(1.01916 0.00764545 2.93352e-19)
(1.01564 0.00257957 0)
(1.01553 0.00151898 0)
(1.02311 0.00827173 0)
(1.02273 0.00598865 0)
(1.02908 0.00359045 0)
(1.03002 0.00181595 0)
(0.0202748 1.81997 0)
(0.00272582 1.81152 0)
(0.087658 1.84721 -1.12957e-20)
(0.157093 1.85884 1.29077e-19)
(0.0861815 1.8763 2.73555e-19)
(0.103746 1.87503 -4.42476e-19)
(0.0950663 1.86239 0)
(0.0799174 1.78006 -1.20178e-19)
(0.0797509 1.78292 0)
(0.197024 1.78211 -1.92903e-19)
(0.181933 1.72416 5.89867e-19)
(0.107234 1.80322 1.08798e-19)
(0.147421 1.82791 3.6877e-20)
(0.127458 1.84598 -2.97586e-20)
(0.158137 1.78619 -1.06098e-19)
(0.14768 1.77193 0)
(0.145146 1.77351 1.00266e-19)
(0.013485 1.77536 -5.42254e-20)
(0.0365077 1.76477 0)
(0.0491435 1.76708 1.86536e-19)
(0.0404713 1.76445 0)
(0.0427217 1.75319 -1.84666e-19)
(0.0432808 1.75976 0)
(-0.00835861 1.77031 -4.62116e-20)
(0.000983946 1.7782 0)
(-0.011092 1.7786 0)
(-0.0116402 1.76964 5.31328e-20)
(-0.000372948 1.78063 1.21156e-21)
(0.00575589 1.77678 2.07522e-19)
(-0.00537674 1.77715 1.41346e-21)
(-0.00736626 1.76955 3.7397e-20)
(-0.00441071 1.76842 2.35237e-20)
(-0.00606935 1.79601 0)
(-0.00518564 1.79466 0)
(0.0116039 1.78721 1.26842e-19)
(0.00359465 1.77837 8.67334e-20)
(0.000355715 1.78111 -1.20423e-19)
(0.0283029 1.79403 0)
(-0.000311531 1.76337 -7.65351e-20)
(0.00173358 1.77374 3.50182e-20)
(0.000415265 1.77572 -1.03357e-20)
(-0.00731038 1.77093 -4.56787e-20)
(-0.00501587 1.78169 -1.50384e-20)
(-0.00676159 1.7824 7.45109e-20)
(1.01311 0.00525218 -3.03813e-19)
(1.0136 0.00360187 3.12776e-19)
(1.0115 0.000908429 0)
(0.991599 0.0627886 4.56263e-19)
(0.981999 0.0264867 -5.13371e-19)
(0.955081 0.0201654 5.8851e-19)
(0.994773 0.0936687 -5.87782e-20)
(1.0244 0.00281397 0)
(1.03078 0.0126576 2.64244e-19)
(1.03274 0.00418926 -2.62212e-19)
(1.02567 0.0329002 -1.51311e-20)
(1.02842 0.0163781 1.33823e-19)
(1.00498 0.029093 0)
(0.995384 0.0263494 -4.6549e-20)
(1.00511 0.0216629 0)
(1.0042 0.0240473 0)
(1.016 0.00318247 0)
(1.01568 0.00508685 0)
(1.00456 0.0204618 1.01057e-19)
(1.00602 0.0203599 -2.26278e-19)
(1.00587 0.0308739 -1.06253e-19)
(0.996755 0.0217374 -1.16278e-19)
(1.00147 0.0363696 2.15355e-19)
(1.03882 0.0410087 0)
(1.03135 0.0905154 0)
(-0.000378676 1.76198 -3.05577e-20)
(0.0165899 1.75989 -2.72194e-21)
(0.00753539 1.75843 0)
(0.0040054 1.77298 3.05141e-20)
(0.0124443 1.7729 5.10488e-21)
(0.00936371 1.77455 -4.88222e-21)
(-0.00352163 1.78254 5.77613e-20)
(0.000731111 1.78037 -3.64055e-21)
(-0.00366183 1.7798 1.70526e-20)
(0.00217285 1.78093 -3.20493e-20)
(0.000100339 1.78091 3.80229e-20)
(-0.000204929 1.78557 5.83572e-22)
(0.000237343 1.77418 3.09485e-20)
(0.152912 1.76053 -1.68709e-19)
(0.14426 1.78895 8.12861e-20)
(0.522307 1.46694 -4.6032e-19)
(0.345675 1.69122 -2.0312e-19)
(0.409862 1.59534 0)
(0.418768 1.60782 2.0863e-19)
(0.470526 1.54424 2.87831e-19)
(0.207895 1.66368 4.64374e-20)
(0.21412 1.65989 -6.72574e-19)
(0.286987 1.68032 5.68208e-19)
(0.309725 1.65354 0)
(0.227165 1.66372 -4.32606e-19)
(0.086416 1.70149 8.21198e-19)
(0.150569 1.69415 -4.28059e-20)
(0.09131 1.7061 -1.10919e-18)
(0.85484 1.73897 4.85479e-19)
(0.6258 1.52758 0)
(1.03145 -0.0119882 1.06221e-20)
(1.01531 -0.0149909 -8.8946e-21)
(1.02294 0.00737739 -1.54621e-19)
(1.03336 0.00223265 1.52278e-19)
(1.03563 -0.00724735 0)
(0.398983 1.04144 0)
(0.489874 0.901429 0)
(0.693898 0.984311 0)
(0.660271 0.744335 0)
(1.08599 2.78273 -5.21921e-20)
(0.900261 2.44775 0)
(0.484806 2.8034 -5.94263e-21)
(0.431938 2.36223 0)
(0.531195 2.54721 -3.62882e-19)
(0.537429 2.60871 2.31792e-19)
(0.841911 0.139201 0)
(0.821729 0.153131 8.63303e-20)
(0.900183 0.113464 4.38185e-19)
(0.851441 0.119884 -1.73505e-19)
(0.835391 0.0894172 -5.39673e-19)
(1.00334 0.192879 -2.8756e-19)
(0.911109 0.282785 -1.42908e-20)
(0.865503 0.264296 4.09046e-19)
(0.928461 0.179311 3.09092e-19)
(0.930063 0.145242 -5.59695e-19)
(0.911936 0.148688 7.22838e-20)
(0.925768 0.209888 -1.45921e-19)
(0.910957 0.174108 0)
(0.969311 0.130864 2.65276e-19)
(0.980439 0.13552 0)
(0.974433 0.166473 0)
(1.04547 0.105198 9.13653e-20)
(1.00315 0.1363 -1.30488e-20)
(1.00009 0.197209 -5.042e-20)
(1.05886 0.178507 0)
(1.00604 0.024404 2.3188e-19)
(1.00303 0.0327085 2.78501e-19)
(1.00798 0.0268109 -2.2741e-19)
(1.01169 0.0480219 -1.87955e-19)
(1.00353 0.0570688 -3.19492e-19)
(0.943663 0.105699 0)
(0.960858 0.087672 0)
(0.947258 0.0364682 -2.1049e-19)
(0.914788 0.0524218 8.98505e-20)
(1.00847 0.0910019 2.67753e-19)
(1.00185 0.110657 -2.79535e-19)
(1.01112 0.129454 2.54004e-19)
(1.00529 0.128725 0)
(1.01326 0.0903046 0)
(1.00108 0.0772661 -1.17973e-19)
(1.00986 0.0822145 -2.14431e-19)
(0.72376 1.43092 -5.69436e-19)
(0.806153 2.27278 5.42804e-19)
(1.17223 2.97886 3.89642e-19)
(1.27506 3.18113 -9.85428e-20)
(1.19764 2.88403 7.73073e-19)
(1.27956 2.826 -3.58972e-19)
(1.13194 2.40416 2.62611e-20)
(1.25706 3.13011 4.1238e-19)
(1.2224 3.14161 -5.92182e-19)
(1.27767 3.30964 -2.8382e-19)
(1.41427 3.0604 3.93169e-19)
(1.41861 2.93462 0)
(0.596465 0.865664 -1.15127e-20)
(0.0962892 1.32445 3.6005e-19)
(0.475022 0.586753 3.99677e-19)
(0.265037 0.357954 4.05457e-19)
(0.558009 0.44453 4.38681e-19)
(0.539175 0.497444 -7.10845e-19)
(0.538015 0.521793 5.78786e-19)
(0.501101 0.498962 -2.32535e-19)
(0.478216 0.422332 5.28107e-19)
(0.805716 0.246205 -1.94714e-19)
(0.760172 0.296637 0)
(0.771604 0.266861 1.22478e-20)
(0.66672 0.50661 1.99881e-19)
(0.65064 0.486684 -7.32058e-19)
(0.579931 0.515695 1.6775e-20)
(0.616315 0.465091 0)
(0.648466 0.738911 1.60179e-19)
(0.829414 0.715061 2.16245e-20)
(0.752475 0.845755 -3.93008e-20)
(0.853392 0.702461 -1.28798e-20)
(0.899314 0.790027 1.5614e-20)
(0.898432 0.769845 -1.60749e-20)
(0.786079 0.600467 -2.29514e-19)
(0.885062 0.672951 1.19532e-20)
(0.960611 0.670539 0)
(0.942425 0.646463 -2.0373e-20)
(0.941611 0.298691 7.12846e-20)
(1.06859 0.27694 2.62399e-20)
(0.983735 0.234958 1.17888e-19)
(0.932671 0.33084 -1.58378e-19)
(0.982479 0.392478 0)
(1.03399 0.389338 0)
(0.830502 0.33834 7.22571e-21)
(0.828803 0.291458 0)
(0.849607 0.264544 2.03173e-19)
(0.838796 0.2686 -4.84076e-21)
(0.871935 0.405692 8.22929e-19)
(0.826788 0.483824 2.0777e-19)
(0.82926 0.439117 -2.72009e-19)
(0.757343 0.42612 2.93513e-19)
(0.742849 0.424095 1.94743e-19)
(0.722518 0.411151 -1.90349e-19)
(1.01719 0.0142644 2.41002e-19)
(1.0209 0.00605031 0)
(1.02279 0.0119055 1.6707e-19)
(1.0154 0.0146935 -3.73054e-19)
(1.02018 0.00641937 1.78148e-19)
(1.02073 0.00445456 -3.84229e-19)
(1.01935 -0.00119379 0)
(1.01991 -0.00473959 -7.86771e-20)
(1.02489 0.000104284 1.96321e-19)
(1.02217 -0.00099343 -1.02958e-19)
(1.02223 -0.00192402 7.60775e-20)
(-0.0182559 1.80066 0)
(-0.0129632 1.77997 0)
(-0.00617963 1.80929 0)
(-0.0136341 1.80579 0)
(0.0513722 1.80453 7.73205e-20)
(0.0546332 1.81215 -2.16117e-20)
(0.0637492 1.79034 -4.4998e-20)
(0.0623269 1.81481 -7.9079e-21)
(0.016116 1.79558 -7.6071e-20)
(0.0204692 1.79734 5.54657e-20)
(0.0455984 1.80931 -2.37263e-20)
(0.0204506 1.81605 -2.3165e-20)
(0.00230909 1.79635 -2.64282e-21)
(-0.00817187 1.78981 -7.93985e-21)
(0.0469989 1.76751 -2.06592e-19)
(0.0508404 1.75742 0)
(0.0568541 1.75239 1.29372e-19)
(0.0723387 1.77743 8.32608e-20)
(0.119216 1.74335 -9.20555e-20)
(0.106975 1.69451 0)
(0.114271 1.68151 -6.25348e-19)
(0.160341 1.70844 4.40544e-19)
(0.106988 1.74816 -2.49244e-19)
(0.0768009 1.73737 1.39119e-19)
(0.0420715 1.71252 0)
(0.00597773 1.77979 -1.5107e-19)
(0.00451752 1.77697 -1.72334e-19)
(0.00575429 1.78296 0)
(0.00436781 1.776 -3.94927e-21)
(0.00945286 1.77547 8.0959e-20)
(-0.00614583 1.77591 7.90615e-21)
(-0.00310376 1.78495 -1.28819e-19)
(-0.00375587 1.77633 3.21269e-20)
(-0.00819784 1.76361 4.55906e-20)
(-0.00495033 1.76778 0)
(-0.00271176 1.77911 0)
(-0.00144094 1.79214 3.33661e-20)
(0.000635208 1.78749 -1.01722e-20)
(0.000798877 1.78502 0)
(-0.00242419 1.79289 2.58394e-20)
(-0.00184847 1.79147 -5.23913e-20)
(1.01226 0.0138268 0)
(1.01294 0.0159765 -2.50342e-20)
(1.00861 0.0166961 -1.82955e-19)
(1.01252 0.0242498 0)
(1.01309 0.0268896 0)
(1.0108 0.00841893 -4.90473e-21)
(1.01411 0.00662248 2.93713e-19)
(1.01323 0.00671404 3.6044e-19)
(1.0178 0.00611848 0)
(1.0177 0.00560781 0)
(1.00928 0.0144468 1.80765e-19)
(1.00946 0.0106427 0)
(1.01762 0.00860235 0)
(-0.00650365 1.76464 0)
(-0.00568465 1.76421 3.35243e-21)
(-0.00350102 1.75892 1.79365e-20)
(-0.00302025 1.78759 0)
(-0.00424028 1.77718 2.28786e-20)
(-0.00268338 1.78661 -1.02566e-20)
(-0.00156072 1.79091 0)
(0.163025 1.96983 0)
(0.113254 1.80951 -1.62881e-19)
(0.133747 1.83542 0)
(0.104326 1.8042 4.725e-20)
(0.167123 1.5982 0)
(0.158985 1.71825 3.20638e-20)
(0.88078 2.57666 -9.08784e-21)
(0.841688 1.84655 -6.1932e-19)
(0.90344 1.80201 2.12043e-20)
(0.663944 1.56887 2.37283e-19)
(0.552392 2.03864 0)
(0.587718 2.21564 0)
(0.822779 1.68907 0)
(0.779081 1.49366 -8.25009e-19)
(0.350485 2.14161 -4.88347e-19)
(0.538108 2.01018 -1.44172e-19)
(0.403345 2.29836 1.10624e-19)
(0.52983 1.54168 0)
(0.607351 1.51606 0)
(0.579309 1.50124 -3.30089e-19)
(0.554238 1.8422 0)
(0.805206 0.791875 0)
(0.741242 0.877592 3.01738e-19)
(0.705883 0.829924 1.09161e-20)
(0.785845 0.791468 0)
(0.894177 0.93063 -4.74154e-19)
(0.779299 0.880459 3.50756e-20)
(0.766542 0.929678 0)
(0.75199 0.916151 -8.03687e-20)
(0.708713 0.925855 0)
(0.722558 0.879462 0)
(1.04641 3.04517 2.94085e-19)
(1.09424 3.09588 3.75447e-19)
(0.810885 2.85306 -7.91381e-19)
(0.707569 2.8112 1.18665e-19)
(0.985088 2.91435 0)
(0.888616 2.88189 -1.45687e-19)
(0.924023 2.57321 2.64944e-19)
(0.859639 2.3031 1.28402e-21)
(0.192168 2.29699 0)
(0.302317 1.30083 4.96322e-19)
(0.33282 1.29507 0)
(0.880467 0.189811 0)
(0.827445 0.181703 0)
(0.783801 0.187739 0)
(0.880024 0.208286 -3.18671e-19)
(0.821218 0.21377 2.01235e-19)
(0.912857 0.0550098 -1.86492e-19)
(0.904975 0.0964982 0)
(0.890911 0.103499 8.32156e-20)
(0.868013 0.079962 3.4393e-19)
(0.882022 0.0558716 -2.11903e-19)
(1.20756 3.37603 -9.40131e-19)
(1.27808 3.31117 0)
(1.19046 3.38157 -1.77295e-18)
(0.687724 3.53619 1.54427e-18)
(0.942439 3.05484 2.53232e-19)
(0.575363 1.01722 3.78741e-19)
(0.607443 0.956367 0)
(0.363704 0.616027 -9.57826e-20)
(0.427958 0.759475 4.48284e-19)
(0.47357 0.573564 -1.2282e-19)
(0.480431 0.566617 1.4648e-19)
(0.610633 0.506815 2.96743e-19)
(0.647961 0.517156 0)
(0.588125 0.633037 0)
(0.542981 0.594168 0)
(0.944076 0.572085 -4.43295e-20)
(0.825677 0.522221 -1.99922e-19)
(0.848547 0.56317 9.57881e-20)
(0.876486 0.501066 -1.51338e-19)
(1.00413 0.458487 0)
(0.988913 0.543995 -9.64807e-21)
(0.7831 0.385847 -4.32023e-19)
(0.78824 0.376495 -4.95371e-19)
(0.755899 0.382026 3.3822e-19)
(0.743865 0.364672 -3.72732e-19)
(0.812251 0.320546 -2.75214e-19)
(0.766022 0.322869 3.38214e-19)
(1.01762 0.00478097 -1.90489e-19)
(1.01836 0.00209472 3.88502e-19)
(1.01671 0.0111245 2.35706e-19)
(1.01375 0.00828205 -2.90698e-19)
(1.00669 0.0145275 0)
(1.01472 0.00542489 -4.59009e-19)
(0.0499245 1.79119 3.13257e-20)
(0.0425152 1.79295 0)
(0.0666266 1.7808 2.49516e-19)
(0.0671202 1.78527 -2.30483e-19)
(0.0651004 1.78899 8.49739e-20)
(0.0628913 1.79385 0)
(-0.00996798 1.76918 0)
(-0.00614614 1.77267 -1.28733e-20)
(-0.0072581 1.77668 1.16388e-20)
(-0.00581912 1.77438 2.52314e-21)
(-0.0101388 1.76911 -2.19733e-20)
(-0.00912431 1.77016 1.26579e-20)
(0.112785 2.10798 5.7287e-20)
(0.0678043 2.08014 -6.63607e-20)
(0.0555587 1.79827 1.33453e-19)
(0.0755109 2.02084 4.95606e-21)
(0.310878 1.18132 0)
(0.195044 1.48064 3.20191e-19)
(0.241947 1.31046 -3.10967e-19)
(0.00965042 1.59309 -1.32498e-19)
(0.0471617 1.57085 0)
(0.196278 1.28606 0)
(0.370174 2.00207 7.44209e-19)
(0.488948 1.71791 1.41145e-18)
(0.552319 1.80951 -9.09953e-19)
(0.42861 1.69665 -1.76362e-19)
(0.316708 1.84219 2.8555e-19)
(0.296019 1.68232 -7.25042e-19)
(0.877997 2.0409 8.34085e-21)
(0.878295 2.31072 0)
(0.892878 2.03612 3.78334e-19)
(0.894102 2.80899 0)
(0.829356 2.68289 0)
(0.712761 2.17828 1.3262e-19)
(1.10891 3.04593 4.18304e-19)
(0.992652 2.93351 -2.7761e-19)
(0.238547 0.999267 0)
(0.328897 0.893437 -2.30869e-19)
(0.607056 0.895695 -1.64885e-19)
(0.394065 1.96534 0)
(0.409528 2.71562 -1.76142e-19)
(0.4235 2.52416 0)
(0.689434 0.69021 -3.31873e-19)
(0.737582 0.661712 4.24221e-19)
(0.754774 0.579773 -3.93986e-19)
(0.624426 0.643512 -5.04492e-20)
(0.67595 0.588261 -2.10878e-19)
(1.11546 2.71908 -3.17481e-19)
(1.11714 2.79256 4.95273e-19)
(0.738324 2.16404 5.31892e-20)
(0.851859 1.72776 -4.67093e-20)
(1.05389 2.1211 7.55092e-19)
(1.15063 2.50874 4.78147e-20)
(1.07368 2.5879 -4.88623e-19)
(0.938987 1.86479 -2.21399e-20)
(0.899218 1.4669 -4.53816e-19)
)
;

boundaryField
{
    wall-4
    {
        type            noSlip;
    }
    velocity-inlet-5
    {
        type            fixedValue;
        value           uniform (1 0 0);
    }
    velocity-inlet-6
    {
        type            fixedValue;
        value           uniform (0 3 0);
    }
    pressure-outlet-7
    {
        type            zeroGradient;
    }
    wall-8
    {
        type            noSlip;
    }
    frontAndBackPlanes
    {
        type            empty;
    }
}


// ************************************************************************* //
