/*--------------------------------*- C++ -*----------------------------------*\
  =========                 |
  \\      /  F ield         | OpenFOAM: The Open Source CFD Toolbox
   \\    /   O peration     | Website:  https://openfoam.org
    \\  /    A nd           | Version:  9
     \\/     M anipulation  |
\*---------------------------------------------------------------------------*/
FoamFile
{
    format      ascii;
    class       volScalarField;
    location    "6";
    object      p;
}
// * * * * * * * * * * * * * * * * * * * * * * * * * * * * * * * * * * * * * //

dimensions      [0 2 -2 0 0 0 0];

internalField   nonuniform List<scalar> 
918
(
0.238883
1.0786
0.00723196
0.237689
0.00128415
1.04566
-0.667694
0.436157
0.220566
-0.107407
0.0254733
0.211214
0.906031
0.670996
-1.40213
0.0267091
0.371708
-0.71785
0.204003
0.0163776
0.614983
0.229934
0.229642
0.215819
0.267868
0.66345
0.787841
0.00263905
-0.000416944
0.00294501
-0.00069433
0.00157348
0.00709438
0.929238
0.98043
1.00316
0.19462
-0.352509
-0.474812
-0.602946
-0.520468
-0.760214
0.416696
0.418048
-0.437328
0.442004
0.46803
0.207959
0.21837
0.219506
0.223974
0.221921
0.223176
0.284357
-0.130306
-0.198915
-0.0544743
-0.0374915
0.0871376
0.025364
0.0347407
0.0272906
0.0323819
0.15096
0.206737
0.203411
0.214335
0.218359
1.01816
0.990005
1.01619
0.930084
0.9466
0.883539
0.856005
0.692324
0.714155
0.6565
0.646839
-1.88074
-2.90005
-0.780876
-0.49572
0.00358253
0.0331005
0.0285303
0.357655
0.365355
0.367418
0.385945
0.69884
-0.644045
-0.864625
0.214561
0.20942
0.225603
0.226694
0.218317
0.220872
0.0212588
0.0227867
0.00476496
0.0122785
0.0118691
0.59229
0.569831
0.212554
0.209741
0.23018
0.24042
0.234618
-0.0019641
0.277725
0.306554
0.469935
0.64636
0.639541
0.646699
0.761006
0.725525
0.824332
0.846218
0.00602349
-9.64488e-05
0.0180196
0.00866207
0.0176214
0.185228
0.181788
0.202202
0.197886
0.193834
-0.328557
-0.348148
-0.340437
-0.25714
-0.432529
-0.543873
-0.668437
-0.621351
-0.847844
0.731495
0.394722
0.405276
-0.389969
-0.343425
-0.484676
-0.307676
-0.393467
0.199033
0.204598
0.202239
0.21227
0.20737
0.214861
0.223391
0.220052
0.221402
0.30853
0.363951
0.250567
0.230075
-0.403049
-0.213929
-0.401784
-0.0217341
-0.00884201
0.10011
0.117797
0.0831568
0.0786495
0.0111046
0.0294919
0.0185864
0.0335304
0.0306992
0.143099
0.135164
0.159658
0.171069
0.196403
0.201593
0.198446
0.200697
0.806374
0.829437
0.8368
0.8105
-3.95435
-6.75989
-0.129314
0.024607
0.0014827
0.00183351
0.00249182
0.000410722
0.00644907
0.00281586
0.0519969
0.0435087
0.0359548
0.0421927
0.339819
0.348583
0.676528
0.742083
0.623195
0.613823
0.202407
0.205961
0.211423
0.208018
0.0320596
0.0242468
0.0278383
0.474851
0.529673
0.510693
-0.0415574
-0.130519
0.0461242
0.0687965
0.330167
0.314527
0.328082
0.532571
0.571022
0.854207
0.873106
0.86972
0.879097
0.923814
0.940394
0.906423
0.172746
0.177934
0.173199
0.20565
0.200102
0.204363
0.195862
0.20009
0.200682
-0.437493
-0.715343
0.338048
0.149576
-0.173057
0.0240279
0.730681
0.791956
0.376492
0.388525
0.391738
-0.241609
-0.32934
0.200077
0.174879
0.0915005
0.123133
0.10521
0.777104
0.739206
0.788863
0.762523
0.725379
0.747915
-0.61409
-2.11142
-1.18214
0.411107
0.211179
0.301983
0.0654847
0.0564039
0.0555033
0.728556
0.789689
0.39744
0.519776
0.506269
0.608847
0.641497
0.700131
0.619895
0.65757
0.697768
0.676852
0.625032
0.435586
0.586815
0.774773
0.815186
-0.149937
-0.193246
-0.26299
0.128243
0.156234
0.137757
0.767156
0.777491
0.801669
0.209727
0.215631
0.0118714
0.0185569
0.223323
0.223527
0.00581584
0.00819837
0.314829
-1.18828
-0.137814
0.209958
0.202793
0.214809
-0.0660903
0.269405
0.0329837
0.0958192
0.0657962
0.205997
0.159602
0.129448
0.00224938
0.0210485
0.021165
-0.305632
0.210919
0.206163
0.215053
0.217191
0.220075
0.00978744
0.0122936
0.00876413
0.0199181
0.0164257
0.0161266
0.187334
0.196594
-0.233592
0.21443
0.218242
0.219077
0.210063
0.218695
0.214606
0.0188608
0.0143571
0.0161797
-0.0440922
0.0679879
0.570657
0.652565
0.567067
0.298662
0.0158264
0.45108
0.52168
0.430314
0.575163
0.370421
0.418991
-0.0742897
-0.204138
-0.0911673
-0.140216
0.207346
0.204476
0.198861
0.199574
0.215989
0.21154
0.212649
0.213666
0.213598
0.212164
-0.0206815
-0.0311901
-0.082042
-0.154096
0.293426
0.35492
0.221559
0.235567
0.147621
0.0430725
0.0362672
0.0329562
0.0260157
0.0664157
0.0703673
0.0804165
0.0818617
0.0555523
0.0561762
0.0640052
0.0651253
0.069763
0.203041
0.198167
0.206026
0.213547
0.164752
0.169486
0.141593
0.159232
0.143363
0.0991807
0.124286
0.103605
0.00777728
0.00655789
0.00811062
0.0201909
0.034901
0.0235547
0.0149571
0.0202017
0.015188
0.0124395
0.0257813
0.0296314
-0.251232
-0.372809
0.656908
0.55147
0.32523
0.207808
0.208858
0.203571
0.205995
0.212942
0.221122
0.218949
0.210666
0.198791
0.199305
0.197078
0.196969
-0.11186
-0.297209
-0.174389
-0.266242
-0.431951
0.311644
0.0727614
0.0243135
0.0100585
0.204033
0.903741
0.710814
0.616702
0.598663
-0.657381
-0.153985
-0.540044
0.177416
-0.0974432
0.542815
0.594828
0.620378
0.562482
0.517359
-0.430841
0.0460114
-0.24482
-0.195577
-0.0938795
-0.168795
0.536236
0.355296
0.366385
0.412381
0.453629
0.364564
0.340038
0.338576
0.390513
0.392423
0.149516
-0.0222073
-0.0628766
-0.0994576
0.348545
0.205052
0.259394
0.192687
0.201609
0.204438
0.205802
0.191203
0.196201
0.196339
0.196624
0.199442
0.205565
0.204863
0.205626
0.207742
-0.0138942
-0.0116786
-0.0398885
-0.173454
-0.170986
-0.239349
-0.105933
0.148781
0.111653
0.296847
0.385632
0.0726438
-0.0802133
-0.0575353
0.0319507
0.153361
0.158273
0.114821
0.162731
0.169433
0.144124
0.206561
0.197522
0.0478066
0.0589988
0.0427894
0.037044
0.104188
0.12006
0.116961
0.051532
0.0538691
0.0390287
0.0380329
0.081743
0.0559701
0.0663981
0.0721559
0.0238435
0.0245339
0.0355473
0.0431589
0.0402179
0.0444998
0.19782
0.196701
0.200859
0.210812
0.216744
0.233181
0.208196
0.182639
0.173722
0.178531
0.16023
0.174337
0.164545
0.177169
0.18484
0.19572
0.195005
0.196016
0.183234
0.183707
0.180846
0.183953
0.159264
0.138886
0.131547
0.0190412
0.0181383
0.022333
0.0174682
0.0140798
0.0151109
0.050116
0.0403169
0.0427361
0.0414789
0.0464092
0.0227883
0.0238738
-0.0938434
0.034436
-0.238608
-0.276318
-0.361061
0.646135
0.711234
0.553564
0.473594
0.496143
0.587133
0.617641
0.389317
0.472034
0.466926
0.650607
0.721649
0.198821
0.205756
0.205057
0.199563
0.199864
-0.0137767
-0.0159166
-0.0796216
-0.110297
-0.25806
-0.331883
0.416813
0.521334
0.502378
0.293906
0.303699
0.321044
0.260752
0.291762
0.296649
0.127618
0.201156
0.247293
0.207543
0.243272
0.262332
0.234964
0.257452
0.214768
0.181575
0.17932
0.12588
0.136532
0.118013
0.106737
0.197105
0.180286
0.183912
0.179606
0.201345
0.22894
0.219019
0.233695
0.250358
0.18597
0.154047
0.158373
0.177638
0.151016
0.161659
0.17296
-0.339838
-0.345434
-0.274993
-0.731826
-0.592932
-0.448469
-0.55396
-0.642727
-0.396128
-1.08925
-0.824089
-1.38869
-0.133117
0.888456
0.520361
0.540711
0.457041
0.41716
0.421083
0.504919
0.497316
0.335183
0.349233
0.355986
0.284827
0.323646
0.380964
0.368566
0.0584716
0.0357912
-0.0383264
0.0166467
-0.0845546
-0.0658369
0.111608
0.0570205
-0.00318865
0.00416421
0.167851
0.0569431
0.114594
0.161161
0.103692
0.0693213
0.231308
0.301866
0.284682
0.25762
0.180946
0.188802
0.221526
0.260658
0.280868
0.315692
0.195498
0.201638
0.203147
0.199088
0.19821
0.199808
0.200735
0.201342
0.202812
0.203493
0.20429
0.0273998
0.0368026
0.010024
0.019023
0.0352074
0.0194031
0.0588343
0.0344222
0.0493403
0.0510976
0.0280367
0.00602755
0.0187649
0.0351439
0.157655
0.185862
0.187487
0.139054
0.24118
0.350133
0.388716
0.342377
0.216762
0.245715
0.289176
0.089182
0.0973096
0.0821998
0.107921
0.0985887
0.041707
0.039112
0.0388683
0.0480743
0.0460889
0.0347745
0.0306969
0.0289339
0.0322906
0.0366127
0.0345379
0.183401
0.177065
0.175097
0.168144
0.169359
0.18598
0.189485
0.189784
0.192626
0.194661
0.189801
0.194369
0.194947
0.0384076
0.0224821
0.0280065
0.0294048
0.0239985
0.0241141
0.0265526
0.261979
0.142672
0.237535
0.10047
-0.150544
-0.0518774
0.405187
0.57632
0.516488
0.672732
0.611659
0.548079
0.578941
0.684613
0.423553
0.578917
0.531065
0.682727
0.674767
0.725995
0.583998
-0.191609
-0.578977
-0.229919
-0.465253
-0.655534
-0.103612
-0.0966203
-0.0914525
-0.159603
-0.214469
-0.00263607
0.0257201
0.011292
0.260986
0.0668012
0.207964
-0.159483
-0.102549
0.248504
-0.0260461
0.111357
0.300417
0.320567
0.336618
0.305751
0.33435
0.258028
0.253716
0.263371
0.279273
0.267918
-1.17555
-1.11244
-1.75857
-1.12774
-0.815267
-0.18538
-0.47759
0.376431
0.223184
0.442726
0.385228
0.332244
0.272422
0.246811
0.317584
0.0518644
0.152132
0.126077
0.135439
0.058699
-0.0124634
0.272793
0.265361
0.303645
0.324185
0.298116
0.32744
0.195776
0.192282
0.197071
0.191936
0.182814
0.183331
0.11184
0.0836559
0.122519
0.103259
0.0570424
0.0548389
0.0409345
0.0395432
0.0328087
0.0320744
0.0413717
0.0413163
0.286264
0.285936
0.128059
0.230117
-0.0348495
-0.100207
-0.147589
0.0487551
0.0851725
0.080917
0.476252
0.586673
0.531611
0.554697
0.452005
0.477017
0.383427
0.105826
0.220821
0.26539
0.377249
-0.758155
-0.950851
-0.828149
0.580386
0.415643
-0.0420214
-0.35998
-0.387346
0.044221
0.13983
0.101998
0.154117
0.209162
0.213488
-0.788039
-0.620852
-0.898861
-0.763836
-0.574197
-0.513321
-0.453284
-0.736061
-0.730768
)
;

boundaryField
{
    wall-4
    {
        type            zeroGradient;
    }
    velocity-inlet-5
    {
        type            zeroGradient;
    }
    velocity-inlet-6
    {
        type            zeroGradient;
    }
    pressure-outlet-7
    {
        type            fixedValue;
        value           uniform 0;
    }
    wall-8
    {
        type            zeroGradient;
    }
    frontAndBackPlanes
    {
        type            empty;
    }
}


// ************************************************************************* //
