/*--------------------------------*- C++ -*----------------------------------*\
  =========                 |
  \\      /  F ield         | OpenFOAM: The Open Source CFD Toolbox
   \\    /   O peration     | Website:  https://openfoam.org
    \\  /    A nd           | Version:  9
     \\/     M anipulation  |
\*---------------------------------------------------------------------------*/
FoamFile
{
    format      ascii;
    class       surfaceScalarField;
    location    "6";
    object      phi;
}
// * * * * * * * * * * * * * * * * * * * * * * * * * * * * * * * * * * * * * //

dimensions      [0 3 -1 0 0 0 0];

internalField   nonuniform List<scalar> 
1300
(
3.75095
5.62643
-6.3924
3.75095
-6.29832
5.62643
-5.17704
5.17704
-1.61201
1.61201
1.88112
1.86984
-5.35591
5.35591
-5.41002
5.41002
-2.97421
2.97421
-5.24693
5.24693
-5.07087
5.07087
4.77143
-4.77143
-5.17306
5.17306
-2.11186
2.11186
-5.97343
5.97343
3.16739
-3.16739
-5.42816
5.42816
-0.563527
0.563527
-0.54666
4.29761
3.20429
3.20429
-2.79442
2.79442
-4.85498
4.85498
6.21854
-6.21854
9.69501
-9.69501
-3.30262
-3.31409
1.3492
-8.07317
-4.94912
-4.94912
-8.44032
8.44032
-2.81389
2.81254
3.11406
-3.11406
-0.982065
0.982065
-4.84399
-0.333056
-4.84399
5.60629
-0.429249
5.60629
-1.78621
0.174206
-1.78621
4.15315
-4.15315
1.46312
0.148886
1.46312
3.06865
-3.06865
-1.87898
3.7601
1.87197
-1.86796
6.16557
-1.88299
3.75283
-4.86444
4.86444
-5.49737
0.141456
-5.49737
5.34598
0.00993372
5.34598
-5.35055
5.35055
-5.39165
-0.0183697
-5.39165
5.40813
0.00188659
5.40813
3.17617
-3.17617
-3.02865
0.0544444
-3.02865
2.92354
0.0506676
2.92354
0.353492
5.27294
-5.97992
8.79246
-5.27294
0.0260111
5.20885
0.0380773
5.20885
-5.10758
0.0367074
-5.10758
5.01
0.0608734
5.01
4.88898
-0.117548
4.88898
-4.86309
0.0916578
-4.86309
-3.27366
-3.33872
-5.24866
0.0755982
-5.24866
-2.11054
-0.00132537
-2.11054
2.1026
0.00925999
2.1026
-3.86685
3.86685
-6.14825
0.174816
-6.14825
3.09686
0.0705328
3.09686
1.86986
1.88109
5.62081
-5.62081
2.45342
-5.41747
-0.0106913
-5.41747
-5.45951
-4.23551
5.45951
-0.0313449
-0.975553
0.412027
-0.975553
3.13262
0.0716777
3.13262
2.90098
0.0225661
-2.90098
0.106555
3.58337
-3.58337
2.10735
0.687066
2.10735
-5.58088
5.58088
4.94643
0.0635755
-4.94643
0.0914426
6.15639
0.0621459
6.15639
-6.20038
-0.0181532
-6.20038
3.34243
-6.65652
-3.29013
5.07829
0.0947681
-5.07829
0.129169
3.13025
-0.0161949
3.13025
-3.07468
3.07468
-3.09765
-0.0164076
-3.09765
-1.53915
0.557085
-1.53915
0.780145
0.20192
0.780145
-4.58383
-0.260155
-4.58383
-5.95588
-0.192373
5.95588
-0.349584
2.31517
-2.31517
-1.92331
0.137094
-1.92331
-4.32149
-0.262341
4.32149
-0.168339
-4.07631
-0.0768399
-4.07631
-3.0892
-0.00844762
3.0892
-0.0205502
3.0838
0.0488174
-3.0838
0.0151456
-1.87201
3.7531
-1.87895
3.75092
-4.59661
-0.267828
-4.59661
5.08871
-0.224268
5.08871
5.76527
0.208164
-5.76527
0.267904
5.36619
-0.020217
5.36619
-5.31374
-0.036811
-5.31374
5.36679
-0.016238
5.36679
5.36546
0.000738182
-5.36546
-0.0261944
5.39976
0.00837593
5.39976
3.21022
-0.034044
3.21022
-3.15215
-0.0240195
-3.15215
3.05371
-3.05371
3.04824
0.00546828
-3.04824
0.0195874
-11.1329
11.1148
-0.0364356
-11.0965
5.17241
5.17241
4.18282
0.706164
4.18282
-5.04466
0.181567
-5.04466
3.2842
-6.57433
3.30198
-6.57564
3.34418
-11.4173
3.30665
-6.64537
5.34254
-5.34254
5.3195
0.0230426
-5.3195
0.0708364
-2.12772
0.0171873
-2.12772
-3.64495
-0.221897
-3.64495
4.10772
-0.240875
4.10772
-3.05097
3.05097
-3.05413
0.00316254
3.05413
0.0427282
5.41756
-0.0178048
-5.41756
8.97307e-05
1.25387
0.209249
-1.25387
0.27832
3.75407
-0.170698
3.75407
-3.39377
-0.189609
-3.39377
-2.08979
-0.0379305
2.08979
0.0175612
-5.82171
0.24083
-5.82171
-11.1896
0.0931117
-11.1515
-6.10727
-6.10727
2.33305
11.1255
-3.14659
-0.00556229
3.14659
-0.016336
3.06958
-0.0186063
-3.06958
-0.00509915
-3.06503
0.0113227
3.06503
0.0096441
-2.1655
0.626352
-2.1655
-1.36668
1.36668
-0.937215
-0.429468
0.937215
-0.15707
2.73671
-0.421536
2.73671
2.02126
0.0813413
-2.02126
0.097952
-3.95334
-0.122972
-3.95334
5.18864
-0.0999251
5.18864
-3.29043
-0.103341
3.29043
-0.0802097
-0.0327657
11.1475
-5.13965
0.0320666
5.13965
-11.2097
11.2417
-3.06299
0.897492
3.06299
1.11982
5.30533
0.275557
-5.30533
0.260668
5.34884
0.0179491
-5.34884
0.00630067
-3.41845
-0.226498
-3.41845
-4.32352
-0.273096
4.32352
-0.215795
-11.4749
-0.199133
11.674
-11.414
6.02085
0.135546
-6.02085
11.3773
-1.88846
-0.426712
1.88846
-0.521776
3.05539
-0.318685
3.05539
3.89314
-0.139068
-3.89314
-0.0602009
-5.23197
-0.0817692
5.23197
-0.0433348
-3.27237
-0.146085
3.27237
-0.216976
-4.22403
4.29571
1.94155
-3.34677
-3.30975
-7.58227
1.82264
1.93045
4.27606
-7.05533
-4.36202
-6.92616
7.24586
-6.98519
-9.53482
9.41727
7.30953
-7.38637
-5.76416
5.80689
6.36976
-6.39031
1.87098
1.88911
10.6317
-10.4903
-10.3022
10.0344
10.2213
-10.2397
10.6396
-10.6764
-12.2164
12.2344
-5.68653
5.74098
-6.61001
6.58599
-6.7208
6.64059
-3.27316
-3.30248
9.01082
-8.93522
11.6882
-11.6989
-11.1359
11.3108
3.31101
0.984697
3.35983
-1.89625
3.76723
-1.85658
3.79813
3.25803
-6.53119
3.3163
-6.62606
6.02591
5.66231
-5.99457
-1.58771
-5.85364
5.83745
-5.80168
5.81132
8.72878
-9.06184
-1.88484
3.77396
-1.86608
3.79653
-3.40401
-2.36015
3.33348
0.942588
5.56668
3.44414
-5.66145
-1.26471
-7.50382
7.36476
-7.83537
7.64576
-0.429353
5.78957
-5.36022
4.42563
-1.4762
7.26577
5.76966
5.95123
5.86235
-5.58679
1.12284
-6.48306
-6.39162
-2.66188
2.79898
2.66984
-2.52095
5.65699
1.65254
5.48865
-5.39601
-1.99036
-5.51898
3.84405
1.96284
3.84721
4.05524
2.31451
4.0468
3.05049
-3.03802
-0.0124664
-3.1149
6.16539
0.735936
-5.47505
-4.53247
6.93594
3.69581
6.94587
-7.28524
-3.20505
-7.01734
-6.11198
-4.19023
-6.38508
6.60349
3.4309
6.37923
-7.80087
7.75754
6.76439
3.45692
6.76627
-6.82898
-3.41069
-6.85518
10.3106
-2.67444
-7.6362
-6.85747
-5.35897
6.87371
3.76585
7.44892
4.78548
7.45522
3.51592
6.79472
-7.28177
1.9228
-3.82218
-1.86435
-3.80259
3.69067
2.05031
3.74134
-4.16389
-2.44612
-4.16945
-4.20276
-2.51804
4.2368
2.34919
-4.26116
-3.57421
4.3645
2.27609
3.06346
-7.42548
3.58191
-6.88439
-6.26619
-2.66903
-6.19535
3.94328
2.72683
-6.6701
-2.58791
10.8017
-5.13936
9.21397
-7.28466
-4.41426
-7.28457
-8.34447
-2.79148
-8.53684
-5.68198
5.45548
-5.73491
5.49403
10.4601
-5.50013
-4.95998
-3.84905
-2.54125
3.83391
-0.47408
-3.82632
3.81385
-0.0590883
3.73904
4.72374
4.24966
-3.85649
-1.94518
-3.86159
3.82687
1.98445
3.83819
7.66351
1.06528
7.23426
-6.11246
-2.94938
-6.37262
8.32411
-7.76702
2.95344
-2.99137
5.05358
2.59218
-4.88289
-2.62094
5.91802
-2.84983
-3.06819
-12.0509
10.6747
1.37613
-4.78509
-0.359459
0.204068
-5.60005
-3.93477
5.50839
0.442838
11.1176
7.1828
-5.51273
5.75356
6.16128
6.22485
-0.166764
5.81822
-4.92073
4.86871
-2.54191
-2.32681
4.95348
-5.21582
-1.41913
-4.947
3.52786
0.272828
2.0048
-1.59278
-2.1567
-0.505183
-2.05875
1.60772
1.06211
1.81697
0.997688
1.80129
-2.88055
0.545456
2.33509
-1.88286
-1.9755
-3.38152
-1.23599
4.61751
5.38832
1.97644
-5.32812
-0.190866
2.82408
-2.81482
-0.626298
-2.75522
2.08955
-2.71585
-3.38262
-1.8335
5.21612
-3.34113
-0.520456
3.35974
0.487468
-3.7662
-2.08744
3.78261
0.264188
-3.04679
6.10819
-3.0614
-4.99197
2.59029
3.5751
4.55313
-4.82213
2.45441
2.36772
-1.24703
6.01737
0.9285
5.99715
-9.19332
5.98827
7.6627
3.64806
-7.87087
0.85353
-8.33979
9.55843
-8.33805
-1.22038
4.91413
4.6443
5.10547
5.35464
-3.84595
8.95142
-1.05704
-7.28101
9.39683
-5.74877
5.57256
-11.3213
-10.9272
3.64619
-6.89387
8.50925
-1.61539
-2.35084
-5.45003
9.2447
-0.829267
-8.41544
5.54996
-5.2784
-5.30287
10.5813
-7.95283
8.71356
-2.58813
-6.12543
-6.62978
-4.04659
6.71155
1.04598
-9.81502
11.7378
-3.0203
5.86808
0.898192
5.87646
3.84831
-5.97587
2.12756
4.10452
-6.69265
2.54381
-8.51968
-4.74702
9.40361
-4.65659
-7.41605
-6.58685
-0.829197
2.03446
9.70336
-6.81994
5.30394
1.516
3.33056
0.507625
-3.33603
-0.466562
0.331772
4.38039
-4.71216
4.07311
4.09568
3.28069
1.0997
3.82326
2.01419
-3.80692
-0.362531
-3.97038
1.45233
-1.62118
-3.37903
4.83136
-3.81346
0.434434
-2.61585
-3.47978
6.09563
-4.48021
3.0508
3.05739
5.03526
-4.7385
1.25872
-2.33898
-2.39952
2.55474
-4.17593
1.84956
2.9818
4.12565
0.551438
4.69221
4.7114
-7.41904
0.534651
8.15554
-6.89083
1.61159
5.84363
-6.91553
0.328679
-5.86667
1.17407
-6.31343
-5.49604
5.93531
-8.72679
-5.38602
7.53879
-0.304529
-7.1892
-1.34763
-3.95724
-1.72474
-4.10333
-1.73056
-4.00434
-5.57652
-1.22924
-4.34728
4.22624
-4.30782
-2.07726
4.52362
0.970412
-4.98489
4.55818
-4.89192
4.57323
0.11628
3.69757
4.36594
1.82468
-2.45054
4.27523
-6.04209
7.10737
-7.26475
1.22266
2.72094
-5.67032
-4.54381
4.28391
4.0402
4.48583
7.1309
-11.3913
4.26037
-8.25113
8.47793
-0.226805
-12.4272
4.17605
-5.29628
2.74006
0.21338
2.75724
0.700859
2.34635
-3.04721
-2.29051
-2.27295
-2.19339
-3.19487
5.38826
1.02837
-3.19515
2.16678
-3.25099
4.27936
-0.111287
-3.08387
5.19644
-2.8501
5.40982
-3.36227
2.04755
3.06793
5.27726
-2.20934
4.17813
-1.58596
1.63767
-3.84701
-1.5572
-2.95111
5.00142
-3.14452
3.57896
-0.289253
3.86821
-3.87139
1.02155
-0.5907
3.50498
3.61153
4.12659
-3.02689
2.7886
-4.37456
-1.0584
-3.82312
-0.841321
-4.57874
-3.20313
7.78187
4.80102
-9.37976
-6.23341
9.4537
-3.2203
7.55586
-5.92824
-1.62761
-4.03466
-3.73237
3.4083
2.40992
9.96577
-0.153432
-5.77481
-5.07416
-3.95434
2.27726
2.59146
-2.14758
3.52371
1.94351
0.0612932
0.617085
1.19989
1.92089
-1.30381
0.114569
1.80632
-1.47821
2.08804
0.736044
-2.16938
0.110629
-1.31369
3.40324
1.0214
-2.08351
0.779706
0.791917
-3.33383
4.62742
-2.3482
-2.27922
5.41934
1.03107
-3.37926
3.91593
-3.6431
1.95574
-3.19173
-1.42353
-5.06663
-3.41409
-2.33101
4.49779
-3.05725
5.03369
1.11517
-4.84283
5.958
-3.33437
1.50086
-2.93363
3.66968
-0.944988
-1.98865
2.61125
2.60487
-2.78853
0.0333054
-0.177278
2.14896
-2.32624
-0.566893
-2.44975
-4.53936
4.80355
-2.05038
4.50479
2.22485
-1.89589
6.40068
1.81217
-3.70806
-3.1798
-3.70026
-1.34034
3.21279
-0.937895
-5.91728
-7.06333
5.91654
0.0806094
-9.04807
10.2031
-1.15499
-5.35227
-0.636007
5.55014
-7.42713
0.734473
-4.88332
5.31975
6.24825
6.32886
-8.32278
-0.09266
-4.89188
1.18827
-6.08015
5.83258
-2.89536
6.54154
-7.02648
4.94922
-6.05607
5.32116
-0.758989
5.53742
-3.40986
2.09878
-6.14538
-5.09939
6.97185
-3.51493
7.87004
-4.04604
11.9161
-7.06634
6.91559
5.00049
-1.36993
-5.91464
-6.8596
5.48967
0.055986
5.93244
4.82203
-2.80784
4.4595
2.16255
-4.50153
-2.01337
-6.30493
1.80341
-3.24755
-1.84731
3.65072
3.18794
3.69557
1.2512
-3.22901
6.51036
-7.33956
-1.85377
-3.64227
6.75027
-1.2606
3.97742
-7.61969
-2.33601
5.54221
-1.11965
-4.42256
-0.0420763
-5.34395
3.00108
-8.34503
5.72571
-7.07334
1.73129
-7.02756
-3.2536
-3.77538
-1.66019
-3.23173
-5.08096
3.42077
-0.904908
3.65327
-6.12417
5.00452
-2.35376
5.77454
-3.54081
-0.562522
3.75778
0.815453
6.58999
-1.12181
-3.422
-2.13214
3.66824
-1.53609
0.145116
-4.32494
-0.656707
2.27272
3.14662
-5.80058
0.130268
-3.29173
-2.71765
6.75785
6.73605
11.5371
0.145801
7.84613
-1.08828
7.99193
3.39755
3.24048
-2.52263
6.783
5.25924
6.4819
-0.83767
2.88522
1.91957
1.91825
0.896572
2.22117
1.39036
3.24272
0.195519
-2.07743
5.06552
-9.01985
-0.709296
-8.31369
1.10358
6.20538
-5.1018
3.05811
-0.466653
1.52202
-0.594286
-2.13394
2.72823
-2.92109
-2.07265
-0.266323
-1.56225
2.34196
1.84099
-2.07564
-0.845456
0.370719
-3.78481
2.82101
-2.7877
-0.182829
5.77517
-2.57564
0.249399
-1.07477
-2.20035
-2.70554
2.59491
6.12444
0.27624
3.06304
5.07979
2.99234
0.184506
4.42816
-6.04354
-4.09152
-6.1362
-0.303629
5.24651
2.01312
7.69023
7.01362
5.75302
-1.86667
-9.20623
7.17052
-0.387513
6.94371
-2.52115
-5.82388
6.14389
0.963474
-5.83936
-1.23398
-7.05786
-7.44537
-0.466024
5.47054
-6.12397
5.56144
3.83671
0.510568
-2.91222
-0.863152
3.34169
-0.101215
7.89072
-1.37382
-7.86628
9.2401
-4.83156
4.12226
0.1328
3.39091
2.86103
2.39437
-5.4719
-10.5737
-1.91662
-1.4172
-4.19584
0.421668
-2.26266
6.6221
-2.49984
4.99449
6.74026
8.26228
-3.86318
-5.51658
7.08348
-2.08899
6.17328
)
;

boundaryField
{
    wall-4
    {
        type            calculated;
        value           uniform 0;
    }
    velocity-inlet-5
    {
        type            calculated;
        value           uniform -3.75095;
    }
    velocity-inlet-6
    {
        type            calculated;
        value           uniform -5.62643;
    }
    pressure-outlet-7
    {
        type            calculated;
        value           nonuniform List<scalar> 8(6.3924 6.29832 6.6167 6.72397 6.61238 6.63256 6.58618 6.65083);
    }
    wall-8
    {
        type            calculated;
        value           uniform 0;
    }
    frontAndBackPlanes
    {
        type            empty;
        value           nonuniform List<scalar> 0();
    }
}


// ************************************************************************* //
