/*--------------------------------*- C++ -*----------------------------------*\
  =========                 |
  \\      /  F ield         | OpenFOAM: The Open Source CFD Toolbox
   \\    /   O peration     | Website:  https://openfoam.org
    \\  /    A nd           | Version:  9
     \\/     M anipulation  |
\*---------------------------------------------------------------------------*/
FoamFile
{
    format      ascii;
    class       volVectorField;
    location    "6";
    object      U;
}
// * * * * * * * * * * * * * * * * * * * * * * * * * * * * * * * * * * * * * //

dimensions      [0 1 -1 0 0 0 0];

internalField   nonuniform List<vector> 
918
(
(0.986708 -0.00399571 0)
(0.0050063 2.96624 0)
(0.000897921 1.70394 0)
(0.97435 0.00816862 0)
(-0.00448323 1.6791 -2.23244e-21)
(-0.00702741 2.94883 -2.23243e-18)
(0.973987 1.3404 5.88145e-19)
(0.539301 0.285251 -9.47888e-21)
(0.999924 -0.00158866 0)
(0.0305755 1.59648 0)
(0.00209401 1.63329 0)
(0.8946 0.0114176 0)
(0.0109976 2.93081 0)
(-0.00126559 2.79728 0)
(-0.0224187 3.23154 1.0203e-18)
(0.00748456 1.63556 -2.77623e-20)
(0.677856 0.129924 5.71008e-19)
(0.246763 1.88418 5.52684e-19)
(0.968626 0.0216774 0)
(-0.000178026 1.64044 0)
(0.161135 0.286591 -6.08546e-19)
(0.998988 -0.0035805 0)
(0.999702 -0.00794728 0)
(0.971935 -0.00684257 0)
(0.841727 -0.0118454 0)
(-0.000387929 2.63993 0)
(-0.0149374 2.90998 8.05559e-19)
(-0.0064585 1.71772 0)
(0.00378402 1.76414 0)
(0.00369664 1.72995 0)
(0.0045856 1.79263 0)
(-0.00385727 1.69007 1.76989e-21)
(-0.00784872 1.6318 0)
(-0.0207361 2.98757 -7.95215e-23)
(-0.0166968 3.00525 1.73509e-18)
(0.00207296 3.00016 0)
(0.939515 0.00797369 0)
(0.169629 0.405856 -2.30942e-19)
(0.901433 1.39639 -6.5266e-19)
(1.04995 1.1266 7.53508e-19)
(0.785164 1.60994 -1.3358e-19)
(0.865918 1.58069 8.1257e-19)
(0.586612 0.344488 9.2488e-21)
(0.581664 0.265462 0)
(1.20586 0.581248 0)
(0.555187 0.347192 4.44201e-20)
(0.518314 0.287132 -4.60875e-20)
(0.929851 0.00423709 0)
(1.00079 -0.000253594 0)
(1.00018 0.000633533 0)
(0.993855 -0.00799476 0)
(1.00011 -0.00249478 0)
(1.00094 -0.000219283 0)
(0.034172 1.57902 -5.28799e-19)
(0.0319368 1.716 0)
(0.0915539 1.64523 0)
(-0.0019373 1.6935 0)
(-0.0012799 1.59245 0)
(-0.00302254 1.63698 0)
(-0.00785639 1.69411 0)
(-0.0106577 1.62287 0)
(2.82723e-05 1.7047 0)
(0.00845499 1.6263 0)
(0.957753 0.00452129 0)
(0.942678 0.0110829 0)
(0.910799 0.00817959 0)
(0.928862 0.0194975 0)
(0.879967 0.0117125 0)
(0.014679 3.00043 8.24212e-19)
(0.0114355 3.008 0)
(0.00610301 3.00269 0)
(0.0134292 2.99721 9.29476e-24)
(0.00807783 2.9586 -1.22498e-18)
(0.0145158 2.98237 0)
(0.0112676 2.90392 0)
(0.0252072 2.93022 1.80055e-24)
(0.00322766 2.82661 0)
(0.0330689 2.91522 0)
(-0.0110936 2.74524 0)
(0.321759 3.63756 0)
(-0.130272 3.7326 0)
(0.147911 3.31758 -9.49715e-19)
(0.00729498 3.03245 0)
(-0.00526258 1.76277 0)
(0.00355914 1.70099 2.73904e-20)
(0.00336479 1.64401 -2.90448e-20)
(0.713856 0.167424 -1.96661e-19)
(0.685674 0.0966279 -1.92495e-19)
(0.714786 0.200735 -5.9234e-19)
(0.665492 0.170427 -3.99182e-19)
(0.219035 1.33763 0)
(0.332287 1.96316 -6.34893e-19)
(0.489246 1.92099 1.03345e-18)
(0.981357 0.0161146 0)
(0.935259 0.0230419 0)
(1.00074 0.000546239 0)
(1.00039 0.00825908 0)
(0.997352 0.0232017 -1.11231e-18)
(0.984441 0.0265021 8.52421e-19)
(-0.00286703 1.69552 0)
(-0.000675845 1.63887 0)
(0.00250223 1.73716 0)
(-0.00561223 1.70903 0)
(0.00256422 1.64902 0)
(0.291894 0.354898 1.86551e-19)
(0.351677 0.309997 0)
(0.991434 -0.00691899 0)
(0.953327 0.00127208 0)
(0.907797 0.00199777 0)
(0.896842 0.00544974 0)
(0.876858 -0.0153092 0)
(1.07419 0.000852239 0)
(0.852073 0.0488519 0)
(0.762863 0.0306307 7.61109e-19)
(-0.0399742 2.8728 5.28601e-19)
(0.0435683 2.90504 0)
(0.0551729 2.88009 0)
(-0.0168239 2.69902 0)
(-0.0128971 2.98576 7.55788e-19)
(-0.0192587 2.89531 0)
(-0.0151028 2.98884 -2.35712e-18)
(-0.0129593 2.92541 8.07821e-19)
(0.00413255 1.77703 0)
(0.00458072 1.76834 0)
(0.00637932 1.70719 -5.06534e-22)
(-0.00609347 1.70022 0)
(0.00183468 1.63452 0)
(0.977403 0.00651931 0)
(0.943823 0.00744969 0)
(0.92766 -0.00731536 0)
(0.974653 0.0102936 0)
(0.936896 -0.00337089 0)
(0.290847 0.768111 2.71949e-19)
(0.295817 0.871649 0)
(0.378029 0.544026 -3.26496e-20)
(0.14415 0.132946 0)
(1.0014 1.18778 -2.12912e-19)
(1.11021 0.928646 4.69215e-19)
(0.483911 1.92586 0)
(0.650372 1.80262 0)
(0.716431 1.7901 0)
(0.485838 0.821403 -3.4173e-19)
(0.640412 0.306052 0)
(0.620088 0.223898 1.15225e-19)
(1.0735 0.996563 0)
(1.1369 0.814044 0)
(1.15625 0.748069 -4.24778e-19)
(1.19633 0.64298 0)
(1.25543 0.42106 6.576e-20)
(0.971136 -0.00503324 0)
(0.965342 0.00229418 0)
(0.931987 -0.00466314 0)
(0.972205 0.00431432 0)
(0.96026 0.00461171 0)
(0.931143 0.00807936 0)
(0.999528 0.00109309 0)
(1.00033 0.00197043 0)
(0.99978 0.00110667 0)
(0.0254713 1.60207 2.83748e-19)
(0.0459159 1.52125 0)
(0.0149446 1.65452 4.83473e-19)
(0.0135278 1.62187 -4.19742e-19)
(0.17584 1.87737 -4.58509e-19)
(0.06228 1.76115 0)
(0.120206 1.75794 0)
(-0.00945157 1.70058 0)
(0.00423947 1.60675 0)
(-0.002438 1.69293 -1.32919e-21)
(0.00514452 1.63346 0)
(0.000897288 1.69735 -7.02589e-20)
(-0.00174519 1.64003 1.32531e-19)
(-0.00382721 1.70243 0)
(-0.0183261 1.69117 0)
(-0.00467217 1.60757 0)
(0.00717339 1.69983 0)
(0.00593973 1.62597 0)
(1.00749 0.00452776 0)
(0.965139 0.000974177 0)
(0.991169 0.00945364 0)
(0.948687 0.0100361 0)
(0.917318 0.00141715 0)
(0.960713 0.0038441 0)
(0.960719 0.000701884 0)
(0.917527 -0.0095245 0)
(0.00482908 3.06662 -7.53419e-21)
(0.0179168 3.0563 0)
(0.0149886 2.96869 0)
(0.00896247 2.87606 0)
(0.902839 4.05667 0)
(1.2012 3.33741 1.00875e-18)
(0.0797877 3.11462 0)
(-0.0180241 2.93048 0)
(0.00145652 1.75276 0)
(-0.00650572 1.75311 0)
(-0.00237363 1.75578 0)
(-0.00730534 1.78753 2.89835e-21)
(-0.0106723 1.77071 0)
(-0.000856876 1.77306 0)
(0.00762763 1.63952 5.63983e-21)
(0.000892665 1.70415 4.1214e-20)
(-0.00816069 1.70832 2.97343e-20)
(-0.000794768 1.64349 0)
(0.74797 0.129467 2.90649e-19)
(0.705908 0.0535425 -2.8102e-19)
(0.197128 1.41736 0)
(0.298066 1.2757 -2.3099e-19)
(0.129754 1.44339 -6.77431e-19)
(0.151655 1.38454 6.76148e-19)
(0.915554 -0.00113603 0)
(0.962545 0.00359008 0)
(0.966254 0.0114899 0)
(0.912454 0.00592537 0)
(-0.00205545 1.69926 0)
(-0.000306394 1.70043 0)
(-0.00169409 1.63504 0)
(0.500355 0.370155 4.17419e-19)
(0.434066 0.371656 -5.44408e-19)
(0.466897 0.289156 0)
(1.186 0.0808747 -2.06469e-21)
(1.17238 0.0375107 0)
(1.10082 0.03935 0)
(1.02053 0.00896577 0)
(0.762603 0.0840492 0)
(0.781565 0.0798356 -1.22581e-18)
(0.72226 0.0294697 4.67923e-19)
(0.0105655 2.983 5.96964e-19)
(-0.0328878 2.87199 4.76631e-20)
(0.00360463 3.05108 -1.6038e-20)
(0.0200967 3.04278 5.71087e-19)
(-0.0150589 2.99703 2.66106e-20)
(-0.012896 2.94961 -1.07519e-22)
(-0.016996 3.01197 -4.97665e-19)
(0.0144908 3.02427 3.58965e-19)
(0.00718648 3.03625 -5.62774e-19)
(0.992488 0.0108876 0)
(0.988406 0.00423446 0)
(0.949249 0.00446401 0)
(0.964801 -0.00528137 0)
(0.968483 -0.00880414 0)
(0.922142 -0.0178279 0)
(0.96448 0.00858998 0)
(0.963788 -0.00119368 0)
(0.920884 -0.00110305 0)
(0.473818 1.17315 4.3462e-19)
(0.565368 1.34657 0)
(0.31452 0.358729 5.48414e-20)
(0.517654 0.672608 2.20418e-19)
(0.468096 0.567416 1.36553e-20)
(0.170175 0.147308 -9.08656e-20)
(0.474687 1.11045 1.66457e-18)
(0.493298 1.02062 3.58769e-19)
(0.685377 0.249341 4.30979e-19)
(0.664186 0.273625 1.03705e-19)
(0.643047 0.205974 2.1686e-19)
(1.23782 0.475059 2.69386e-19)
(1.25257 0.258843 2.94034e-19)
(-0.00603026 1.68302 1.95937e-19)
(-0.00685866 1.62985 0)
(1.04926 0.0233053 0)
(1.0161 0.0156462 0)
(0.996435 0.00704787 0)
(0.010531 3.07338 0)
(0.0195928 2.94347 1.02817e-18)
(0.0162993 2.95568 0)
(0.00624544 2.85084 -1.02038e-18)
(0.00457843 3.09006 2.48796e-19)
(0.00623455 3.08418 0)
(0.605346 1.70968 -2.11946e-19)
(1.1833 2.50005 5.29198e-19)
(0.618738 1.89667 -1.40008e-18)
(0.0221265 2.98847 -4.84975e-19)
(0.0436275 3.02161 0)
(-0.0347585 2.88948 0)
(-0.00599604 1.69065 -9.69428e-21)
(0.00237065 1.69562 -9.61739e-20)
(-0.00280535 1.63729 -3.88894e-21)
(0.258956 1.35209 7.36201e-19)
(0.346976 1.2308 -5.14107e-19)
(0.0334574 1.54783 4.52125e-19)
(0.0767723 1.50646 -5.67047e-19)
(0.0768888 1.44149 6.60647e-20)
(0.00213613 3.11866 -1.51338e-18)
(0.0163063 3.11742 1.62339e-18)
(-0.00787286 2.97964 6.83253e-19)
(-0.00161464 2.97813 -6.28545e-19)
(-0.0197647 2.88337 -6.95873e-19)
(0.00882825 3.09701 -1.8444e-18)
(0.00136669 3.10468 1.801e-18)
(0.508792 0.987412 0)
(0.541306 0.818109 -1.14156e-18)
(0.450432 0.618478 5.23069e-19)
(0.431186 1.21175 9.89954e-19)
(0.457985 1.12945 -1.53702e-18)
(1.26121 0.169104 -4.80995e-20)
(1.25721 0.309862 0)
(1.24844 0.119667 1.16479e-19)
(0.00448482 1.68825 -1.70134e-21)
(-0.0124115 1.6828 0)
(0.000627923 1.61786 0)
(0.303237 1.32822 -2.67417e-19)
(0.364441 1.30061 -6.1757e-19)
(0.404029 1.19827 1.13383e-18)
(1.00215 -0.033123 0)
(1.00485 -0.0206438 2.06135e-19)
(0.00298149 1.7751 0)
(-0.00512817 1.78299 0)
(1.00303 0.00609044 3.56084e-21)
(0.996635 0.0119217 4.21497e-19)
(-0.00878297 1.78723 -3.75318e-21)
(-0.00859711 1.78647 0)
(0.0621077 3.1932 3.14779e-19)
(0.446683 3.59002 0)
(1.11059 0.619717 4.60579e-20)
(1.011 0.00924786 -1.42074e-21)
(1.00441 0.0125058 0)
(1.0038 -0.00302906 -3.31992e-22)
(0.0535621 1.84041 0)
(0.0892512 1.70714 0)
(0.0022048 1.79372 0)
(0.0108793 1.77403 9.47665e-20)
(0.0031124 1.7677 4.74433e-20)
(0.994697 0.0210802 1.57837e-21)
(1.04058 -0.000704789 0)
(1.06331 0.031188 0)
(-0.00429111 1.74904 0)
(-0.000119705 1.78079 0)
(-0.00327463 1.78501 0)
(0.214788 1.92722 -2.42927e-19)
(0.998951 -0.0320135 0)
(0.991373 -0.0285867 0)
(1.01229 -0.00187956 2.60606e-19)
(1.005 -0.0136383 -3.06152e-19)
(1.00361 -0.00263755 0)
(0.00411168 1.73889 0)
(0.0067416 1.7658 0)
(0.00506297 1.75057 0)
(-0.00800014 1.78729 0)
(-0.00615519 1.78131 0)
(-0.00982757 1.786 0)
(1.01813 -0.00118132 0)
(1.01389 0.00849493 -8.81133e-22)
(0.662815 1.32108 3.32171e-19)
(1.00389 -1.21285e-05 -2.56117e-19)
(1.0082 0.011365 3.17938e-19)
(1 0.00205191 0)
(1.01332 0.014315 2.47294e-19)
(1.00179 0.00898425 -3.18818e-19)
(0.989565 0.0187035 0)
(-0.00247972 1.78782 0)
(-0.00661276 1.78821 1.87188e-20)
(-0.00685929 1.78767 -1.38662e-20)
(1.15652 0.24947 -1.56815e-20)
(1.09979 0.0810054 0)
(0.0316215 3.0667 -7.85061e-19)
(0.0729799 2.83761 -5.86603e-20)
(0.181843 3.17253 1.36914e-18)
(0.1799 3.20888 -1.12511e-19)
(0.162366 3.26688 0)
(0.0148447 3.1445 1.94275e-19)
(0.0877974 3.15113 7.68126e-19)
(0.0853262 3.17235 -3.82183e-19)
(0.0239265 3.13216 0)
(0.699937 0.356142 0)
(0.637608 0.390307 0)
(1.02071 0.636848 -1.79919e-19)
(1.05044 0.805118 2.83635e-19)
(1.12021 0.537015 0)
(1.15846 0.532606 0)
(1.01421 0.000754848 -4.85566e-19)
(1.01879 -0.00266591 6.03069e-19)
(1.01241 0.00883548 0)
(1.01326 0.0108668 0)
(1.01104 0.00436725 0)
(1.01992 0.00865654 0)
(1.00987 -0.00395017 0)
(1.02381 0.0125724 0)
(1.02007 0.0168885 0)
(1.02098 0.00785259 0)
(0.0310493 1.8267 0)
(0.0068734 1.83128 0)
(0.0920765 1.86965 0)
(0.069619 1.88196 0)
(0.0831113 1.69989 0)
(0.0686629 1.67786 -3.04118e-19)
(0.0845844 1.73114 0)
(0.0600755 1.72927 1.62512e-19)
(0.00785467 1.75201 -1.70393e-19)
(0.00318244 1.7931 0)
(0.00163416 1.79153 0)
(0.00401754 1.79921 0)
(0.00447329 1.81512 0)
(0.00207853 1.76358 -5.44123e-20)
(-0.00131533 1.77195 6.45236e-20)
(0.0019311 1.77883 8.17491e-20)
(0.00159495 1.77639 0)
(0.00481285 1.77323 -1.06353e-19)
(0.00879982 1.7713 -6.90408e-20)
(-0.000630788 1.76094 4.4341e-20)
(-0.00731084 1.76368 -8.63798e-20)
(-0.00306749 1.77187 -1.01776e-19)
(1.00144 0.0212633 4.56895e-19)
(1.00541 0.0114184 -5.56353e-19)
(1.00097 0.0123689 -4.87062e-19)
(0.976997 0.00768187 6.08355e-19)
(1.03998 0.00616095 0)
(1.04595 -0.00947429 0)
(1.05683 0.0285047 0)
(1.04405 0.000350662 0)
(1.06288 0.0163107 0)
(1.08031 0.0743246 0)
(1.0643 0.0363711 0)
(1.08855 0.0324829 0)
(-0.00707616 1.78738 -1.77325e-21)
(-0.00490493 1.7574 0)
(-0.0110438 1.7731 0)
(0.00354909 1.78286 1.41523e-20)
(0.00395936 1.78209 -8.78032e-22)
(0.0162792 1.73691 2.23149e-20)
(0.00522392 1.74056 -2.28419e-20)
(-0.00308688 1.7742 0)
(-0.000189585 1.77085 0)
(0.000536749 1.76825 0)
(0.000637018 1.78605 0)
(0.000657715 1.78161 0)
(0.34878 1.90625 3.8517e-19)
(0.345323 1.91026 1.80807e-19)
(0.308668 1.57671 -1.82047e-19)
(0.144195 1.60599 4.59581e-19)
(0.246387 1.68137 1.19405e-19)
(1.00174 0.0116054 0)
(0.990687 -0.0173926 0)
(0.987095 -0.0137766 0)
(1.03153 -0.0112577 0)
(1.01831 -0.0221383 0)
(1.01233 -0.0229221 0)
(1.00037 -0.0166715 0)
(1.01116 0.00450654 0)
(1.01396 0.00736523 4.47721e-19)
(1.01801 0.00762271 -5.70232e-19)
(1.01296 0.00679251 -4.37484e-19)
(1.01373 -0.0027398 5.72042e-19)
(0.660557 1.4622 0)
(0.573576 1.58955 3.11871e-19)
(0.775558 1.21873 1.9403e-19)
(0.834848 1.16258 -2.58237e-19)
(0.81031 2.46672 -1.0519e-18)
(0.839227 0.109286 2.91413e-19)
(1.10468 0.0846011 0)
(1.13105 0.163779 1.4315e-20)
(1.13716 0.141161 1.52039e-21)
(0.971175 0.096103 0)
(0.172226 2.9235 3.7329e-19)
(0.132155 2.82766 -1.10625e-18)
(-0.0170388 2.39212 7.39209e-19)
(0.0867959 0.187476 -2.99648e-19)
(0.388077 3.49451 -4.14313e-19)
(0.248515 3.34089 0)
(0.271585 3.44039 5.39464e-19)
(0.295708 3.01834 -1.4467e-18)
(0.426362 3.22875 0)
(0.0102195 3.11974 3.82178e-20)
(0.018329 3.12813 -4.6432e-19)
(0.0172182 3.12455 6.83424e-19)
(0.0401819 3.13842 0)
(0.0378805 3.14708 0)
(0.963952 2.60154 0)
(0.589342 0.711846 -1.30625e-19)
(0.943443 0.971578 -1.39079e-19)
(0.899027 1.01264 0)
(0.713926 0.955944 4.80112e-20)
(0.981409 0.822915 1.31724e-20)
(0.390457 0.538776 -7.30538e-19)
(0.71748 0.341143 -2.38339e-20)
(0.731165 0.30878 2.19521e-19)
(0.621231 0.441113 1.93679e-20)
(0.566889 0.428868 -8.20314e-19)
(0.697259 0.371573 0)
(0.699562 0.425634 3.64188e-19)
(0.694122 0.407039 0)
(0.652964 0.40349 0)
(0.666941 0.377004 0)
(0.773072 0.552022 1.01371e-19)
(1.16433 0.263253 1.26965e-20)
(1.14664 0.397554 0)
(1.18222 0.353655 0)
(0.797666 0.220744 3.39387e-19)
(0.798301 0.494864 -1.8132e-19)
(0.712644 0.461326 2.85992e-19)
(0.876234 0.407478 -2.81182e-19)
(1.01944 -0.00301066 3.05718e-19)
(1.01888 -0.00658727 -3.12353e-19)
(1.01955 -0.004876 0)
(1.01851 0.00355177 0)
(1.01893 0.0115082 -2.92651e-19)
(1.02138 -0.00152189 2.83974e-19)
(1.0119 0.00122077 0)
(1.00766 0.00223686 0)
(1.02655 0.00102211 0)
(1.02111 -0.00603676 0)
(1.01958 0.00549876 0)
(1.0236 0.00411373 0)
(-0.00115137 1.83156 0)
(-0.00128336 1.82805 0)
(0.145444 1.8533 1.78788e-21)
(0.207029 1.90265 1.14252e-19)
(0.104544 1.92228 2.50243e-19)
(0.108576 1.92453 -4.06134e-19)
(0.152707 1.86933 0)
(0.137737 1.75811 -1.19116e-19)
(0.131962 1.77114 0)
(0.245754 1.67801 -1.73879e-19)
(0.18659 1.63578 5.5783e-19)
(0.160204 1.7958 1.08199e-19)
(0.209667 1.85479 3.73177e-20)
(0.168631 1.86416 -2.98674e-20)
(0.254021 1.80191 -1.0171e-19)
(0.200898 1.76247 0)
(0.204892 1.75525 9.67642e-20)
(0.0214725 1.76772 -4.99537e-20)
(0.00365857 1.74411 0)
(0.0354793 1.73179 1.84675e-19)
(0.0148105 1.73635 0)
(0.0462746 1.73274 -1.80615e-19)
(0.0149827 1.73701 0)
(0.00184798 1.76384 -4.11253e-20)
(0.0054542 1.76121 0)
(0.00317144 1.77022 0)
(0.00443332 1.76644 4.72453e-20)
(0.0129884 1.77352 -2.00103e-22)
(0.0192372 1.7684 2.0546e-19)
(0.0162677 1.77545 1.3903e-21)
(-0.00702941 1.76047 3.42717e-20)
(-0.00618389 1.7596 2.18041e-20)
(0.00365769 1.79065 0)
(-0.00227354 1.78642 0)
(0.0143899 1.76586 1.13879e-19)
(0.0113605 1.76422 8.40629e-20)
(0.00828212 1.75976 -1.18045e-19)
(0.029513 1.7827 0)
(0.0117004 1.75801 -5.95042e-20)
(0.00487617 1.75969 2.75064e-20)
(0.00158544 1.7609 -8.54483e-21)
(-0.00772644 1.76288 -4.29958e-20)
(0.00798581 1.76757 -1.38445e-20)
(0.00395185 1.7727 6.82763e-20)
(1.01347 -0.00430396 -3.01806e-19)
(1.01158 0.00662238 2.95528e-19)
(1.01282 -0.00112591 0)
(0.985575 0.0660249 4.48891e-19)
(0.973152 0.0232333 -5.04162e-19)
(0.943966 0.0122313 5.82177e-19)
(0.980138 0.0785418 -5.86968e-20)
(1.02684 0.00826512 0)
(1.03595 0.00423798 2.65268e-19)
(1.03358 0.00425814 -2.64436e-19)
(1.01548 0.0274334 -1.53435e-20)
(1.01974 0.0173215 1.35947e-19)
(0.998449 0.0348108 0)
(0.985315 0.0280932 -4.73e-20)
(1.00901 0.0186565 0)
(1.00104 0.0236965 0)
(1.01394 0.00293245 0)
(1.01581 0.00176337 0)
(1.00314 0.0120762 9.98829e-20)
(1.00209 0.0170087 -2.18782e-19)
(0.988114 0.019682 -1.06009e-19)
(0.980462 0.01218 -1.17564e-19)
(0.993377 0.0526212 2.13378e-19)
(1.0415 0.0466867 0)
(1.03215 0.0966547 0)
(0.0234451 1.7615 -2.41398e-20)
(0.0160956 1.75333 -2.5773e-21)
(0.0222406 1.74939 0)
(0.0122263 1.77556 2.46384e-20)
(-0.00403126 1.7834 4.30442e-21)
(0.00301388 1.78203 -4.53656e-21)
(0.00945435 1.77364 6.03037e-20)
(0.00129847 1.76491 -3.60188e-21)
(0.00829803 1.76605 1.61015e-20)
(0.0115159 1.77254 -3.0995e-20)
(0.00864734 1.77234 3.65899e-20)
(0.00521231 1.76113 5.25927e-23)
(0.0212059 1.75426 2.90248e-20)
(0.331201 1.80447 -1.65161e-19)
(0.268719 1.79244 9.81999e-20)
(0.576103 1.71128 -2.98052e-19)
(0.46121 1.85637 -1.80721e-19)
(0.490318 1.7914 0)
(0.334869 1.58064 1.88343e-19)
(0.344725 1.56097 2.72907e-19)
(0.198065 1.60452 3.99274e-20)
(0.191272 1.59987 -6.26477e-19)
(0.264787 1.60177 4.96919e-19)
(0.289388 1.60611 0)
(0.216762 1.60742 -3.82063e-19)
(0.0730668 1.65805 7.85096e-19)
(0.12847 1.6373 -4.38785e-20)
(0.0531582 1.63353 -1.0732e-18)
(0.771116 1.46783 8.15281e-19)
(0.596629 1.5052 0)
(1.0367 -0.00776325 9.84144e-21)
(1.02279 0.01929 -8.46819e-21)
(1.02023 0.0282633 -1.47636e-19)
(1.02223 0.0180017 1.49032e-19)
(1.03165 -0.00233274 0)
(0.327318 1.38672 0)
(0.237099 1.25644 0)
(0.530944 1.00765 0)
(0.306415 1.0622 0)
(0.824831 2.41871 1.84152e-19)
(0.832184 2.0931 0)
(0.460678 2.37377 4.85042e-21)
(0.516067 1.81405 0)
(0.617322 1.93305 -5.84085e-19)
(0.582937 2.06344 3.60282e-19)
(0.851564 0.138847 0)
(0.830886 0.167349 8.44617e-20)
(0.919243 0.107433 4.23047e-19)
(0.863705 0.105557 -1.67445e-19)
(0.849772 0.0796201 -5.24013e-19)
(0.996829 0.200965 -2.62148e-19)
(0.919739 0.277424 -1.24047e-20)
(0.842721 0.262107 3.86808e-19)
(0.916433 0.205222 2.9761e-19)
(0.941566 0.145022 -5.38046e-19)
(0.912125 0.146761 6.86671e-20)
(0.883362 0.219493 -1.39305e-19)
(0.912969 0.1779 0)
(0.961347 0.144348 2.56626e-19)
(0.961736 0.142615 0)
(0.963218 0.189721 0)
(1.05316 0.0924199 9.15908e-20)
(0.98586 0.128427 -1.37965e-20)
(0.992968 0.193872 -4.72342e-20)
(1.05154 0.18508 0)
(1.01308 0.0326584 2.29617e-19)
(1.0049 0.0424412 2.80955e-19)
(1.0116 0.0383448 -2.26132e-19)
(1.01553 0.0569946 -1.89113e-19)
(0.998685 0.0652394 -3.16076e-19)
(0.947851 0.0748734 0)
(0.948084 0.0706854 0)
(0.932805 0.0517559 -2.09283e-19)
(0.91005 0.0630515 8.84887e-20)
(1.00862 0.0872582 2.65253e-19)
(0.991813 0.10018 -2.74944e-19)
(1.00168 0.10685 2.41847e-19)
(0.999162 0.115119 0)
(1.00543 0.0873464 0)
(0.99967 0.0817648 -1.16284e-19)
(1.01098 0.0849112 -2.12483e-19)
(0.0199286 1.81779 -1.27699e-19)
(0.189836 2.6816 1.04092e-19)
(0.762256 3.04512 3.3036e-19)
(0.996583 3.3318 -1.37862e-19)
(0.937969 2.74107 1.19944e-18)
(1.01825 2.76233 -4.56241e-19)
(0.870843 2.13842 5.00605e-21)
(0.938428 3.19025 4.42242e-19)
(0.932014 3.13943 -5.74068e-19)
(1.03668 3.46091 -3.34195e-19)
(1.22748 3.11241 4.71031e-19)
(1.25059 2.95189 0)
(0.620177 0.689458 1.78962e-20)
(0.258459 1.20769 5.39764e-19)
(0.460815 0.650032 4.54338e-19)
(0.334682 0.40833 5.46423e-19)
(0.563369 0.451514 4.59985e-19)
(0.568381 0.485883 -7.00157e-19)
(0.547543 0.553458 5.74623e-19)
(0.502717 0.505013 -2.67008e-19)
(0.492662 0.470313 5.82823e-19)
(0.799957 0.257246 -1.9067e-19)
(0.759248 0.294909 0)
(0.765359 0.27467 1.22727e-20)
(0.693385 0.490968 1.83807e-19)
(0.660145 0.46557 -6.84196e-19)
(0.595892 0.507613 3.36725e-20)
(0.638636 0.475838 0)
(0.661482 0.614559 7.89059e-20)
(0.776673 0.759053 -1.259e-20)
(0.700528 0.790874 1.35583e-21)
(0.795759 0.697724 -1.59426e-20)
(0.839253 0.816348 1.27335e-20)
(0.833298 0.790005 -1.30285e-20)
(0.806981 0.545968 -1.8823e-19)
(0.877509 0.608878 1.49601e-20)
(0.946059 0.653552 0)
(0.939543 0.636184 -2.02565e-20)
(0.945606 0.288699 7.12243e-20)
(1.07638 0.282518 1.77312e-20)
(0.982053 0.237139 1.0675e-19)
(0.93057 0.333323 -1.57017e-19)
(0.974512 0.39313 0)
(1.02266 0.374722 0)
(0.842511 0.335818 1.18152e-20)
(0.810814 0.302816 0)
(0.83217 0.282077 1.98738e-19)
(0.835992 0.270815 -7.79892e-21)
(0.865327 0.410041 7.66518e-19)
(0.825976 0.470931 1.91675e-19)
(0.817522 0.443459 -2.53914e-19)
(0.752335 0.407164 2.74495e-19)
(0.733542 0.408937 1.83471e-19)
(0.717461 0.407232 -1.79605e-19)
(1.01309 0.00826603 2.47534e-19)
(1.01098 -0.000567058 0)
(1.00918 0.0143321 1.63818e-19)
(1.01245 0.0105473 -3.66099e-19)
(1.0114 0.00411426 1.77412e-19)
(1.01354 0.0102942 -3.70451e-19)
(1.0109 0.00161412 0)
(1.01001 -0.00617604 -7.69816e-20)
(1.01328 0.00121674 1.94726e-19)
(1.01804 -0.00403069 -9.83252e-20)
(1.01691 -0.00243112 7.2488e-20)
(0.00350074 1.8173 0)
(0.00192108 1.77198 0)
(0.000472123 1.82329 0)
(0.00414414 1.82144 0)
(0.0273976 1.79184 6.31563e-20)
(0.040412 1.80703 -1.80043e-20)
(0.0949374 1.78137 -3.36046e-20)
(0.0983268 1.79477 -1.70354e-20)
(0.0132225 1.77209 -7.98564e-20)
(0.0132629 1.77615 5.8109e-20)
(0.0223445 1.78823 -1.88946e-20)
(0.00555596 1.79077 -2.09405e-20)
(0.00592888 1.78602 -2.36588e-21)
(0.00186071 1.77795 -7.90025e-21)
(0.0609636 1.74185 -1.97099e-19)
(0.0835029 1.74326 0)
(0.0890928 1.73646 1.24543e-19)
(0.112861 1.76755 7.74651e-20)
(0.14756 1.71762 -8.64853e-20)
(0.109753 1.65909 0)
(0.109565 1.64557 -5.70551e-19)
(0.163068 1.64052 4.00763e-19)
(0.145003 1.72407 -2.41848e-19)
(0.117509 1.7259 1.33921e-19)
(0.0810831 1.68939 0)
(0.0193022 1.76445 -1.31412e-19)
(0.0142966 1.76373 -1.79926e-19)
(0.0123427 1.76255 0)
(0.0291937 1.77091 -3.86063e-21)
(0.0284751 1.77226 6.88849e-20)
(0.00328948 1.77738 7.4381e-21)
(0.00659333 1.7839 -1.17156e-19)
(0.0052149 1.78056 2.99607e-20)
(-0.00639022 1.7616 4.33601e-20)
(0.00257059 1.76322 0)
(0.000861415 1.78597 0)
(-0.00175253 1.78681 3.53275e-20)
(0.00090848 1.78849 -9.85883e-21)
(0.000377094 1.78872 0)
(-0.00254773 1.7879 2.95564e-20)
(-0.00724006 1.7841 -5.69609e-20)
(1.00459 0.0171032 0)
(1.00583 0.0221405 -2.36804e-20)
(1.00483 0.0126671 -1.73631e-19)
(1.01361 0.0199791 0)
(1.01494 0.0271869 0)
(1.00034 0.00780913 -7.18446e-21)
(1.00168 0.00816074 2.86817e-19)
(1.00369 0.00963011 3.56102e-19)
(1.0174 0.00512854 0)
(1.01625 0.00656006 0)
(1.00218 0.0163875 1.80688e-19)
(1.00162 0.0145736 0)
(1.00693 0.0135868 0)
(0.0057937 1.74545 0)
(0.012106 1.76035 1.12901e-21)
(0.0107718 1.75217 1.40804e-20)
(0.0012269 1.78602 0)
(0.000962002 1.77021 1.81156e-20)
(0.00447744 1.78087 -9.92417e-21)
(8.5572e-05 1.78608 0)
(0.352022 1.72624 0)
(0.290242 1.76484 -2.31541e-19)
(0.268692 1.74579 0)
(0.341518 1.75577 1.79617e-19)
(0.361045 1.77356 0)
(0.357609 1.79447 -3.69911e-20)
(0.782401 1.81928 -1.77051e-20)
(0.785091 1.45999 -9.78633e-19)
(0.856948 1.44749 9.43359e-19)
(0.639033 1.50372 2.81828e-19)
(0.612843 1.62765 0)
(0.676909 1.66749 0)
(0.743096 1.46472 0)
(0.70326 1.45941 -1.00792e-18)
(0.408 1.73438 -5.28086e-19)
(0.532171 1.61781 -1.46203e-19)
(0.531492 1.74545 1.17966e-19)
(0.401886 1.55648 0)
(0.546935 1.53444 0)
(0.466485 1.54532 -3.19122e-19)
(0.495766 1.60963 0)
(0.328096 0.92795 0)
(0.429529 0.609395 8.99231e-19)
(0.618338 0.565145 5.62918e-20)
(0.00754122 1.15201 0)
(0.332647 1.26704 -1.36115e-18)
(0.709791 0.789491 4.1405e-20)
(0.664856 0.898546 0)
(0.663381 0.913249 -7.45067e-20)
(0.551483 0.696073 0)
(0.590413 0.744282 0)
(0.752971 2.65899 1.28697e-19)
(0.726127 2.93384 -1.35034e-20)
(0.434326 2.75997 -1.08982e-19)
(0.395327 2.56406 -8.13262e-20)
(0.802045 2.33432 0)
(0.792566 2.24129 1.05644e-19)
(0.841537 2.03187 8.49483e-20)
(0.880156 1.77469 3.74899e-21)
(0.23654 2.02706 0)
(0.0202442 1.71639 1.1099e-19)
(0.0859126 1.68498 0)
(0.889132 0.193847 0)
(0.83394 0.174392 0)
(0.800689 0.175531 0)
(0.873338 0.213237 -3.12167e-19)
(0.818222 0.209629 1.98297e-19)
(0.902001 0.0675351 -1.84236e-19)
(0.91145 0.0895432 0)
(0.913932 0.0896691 7.85719e-20)
(0.866632 0.0845158 3.35567e-19)
(0.873509 0.071706 -2.07747e-19)
(1.08441 3.53623 -7.71461e-19)
(1.08117 3.50532 0)
(1.10812 3.50603 -1.6218e-18)
(0.673625 3.65458 1.65283e-18)
(0.896169 3.21602 4.85848e-19)
(0.666431 0.723137 -1.14715e-19)
(0.553759 0.816007 0)
(0.59797 0.580728 -8.64634e-20)
(0.593146 0.641969 2.16999e-19)
(0.55555 0.639684 -1.28702e-19)
(0.527669 0.578525 1.41551e-19)
(0.610527 0.532191 2.76955e-19)
(0.669646 0.51445 0)
(0.64953 0.622327 0)
(0.579853 0.592455 0)
(0.976818 0.555479 -4.12914e-20)
(0.826839 0.48835 -1.84483e-19)
(0.833948 0.522681 8.99388e-20)
(0.857535 0.499826 -1.37772e-19)
(0.995365 0.461157 0)
(1.01936 0.522554 -8.35585e-21)
(0.779342 0.374142 -4.12711e-19)
(0.792446 0.368235 -4.6722e-19)
(0.760195 0.368598 3.2231e-19)
(0.752265 0.350062 -3.57607e-19)
(0.794061 0.317848 -2.71231e-19)
(0.754088 0.319011 3.34019e-19)
(1.01241 -0.00469953 -1.88979e-19)
(1.01876 -0.00212655 3.76213e-19)
(1.002 0.00468173 2.36709e-19)
(1.00381 0.0175451 -2.83328e-19)
(0.996139 0.0209474 0)
(1.00541 0.0061603 -4.46988e-19)
(0.0410499 1.78502 3.0053e-20)
(0.039306 1.78012 0)
(0.0583369 1.76918 2.4216e-19)
(0.0842323 1.78441 -2.14415e-19)
(0.070824 1.79551 6.28545e-20)
(0.0538687 1.78078 0)
(-0.00724167 1.75576 0)
(-0.00279461 1.7729 -1.1779e-20)
(0.00115058 1.77983 1.0753e-20)
(0.00104902 1.77237 5.00736e-21)
(0.000460049 1.74823 -2.12481e-20)
(0.00277246 1.75413 1.17066e-20)
(0.319452 1.89118 -5.75406e-19)
(0.337947 1.80043 6.05214e-19)
(0.333681 1.75323 -1.13195e-19)
(0.36316 1.77867 2.42127e-20)
(0.361305 1.51005 0)
(0.390054 1.72122 1.62201e-19)
(0.383743 1.63147 -1.57088e-19)
(0.306177 1.75155 1.18197e-19)
(0.285048 1.74498 0)
(0.211596 1.71278 0)
(0.3899 1.64712 8.14045e-19)
(0.393692 1.57955 1.28811e-18)
(0.450013 1.61118 -8.74213e-19)
(0.364151 1.60176 -1.59363e-19)
(0.316826 1.63536 2.64424e-19)
(0.25912 1.60197 -6.51353e-19)
(0.867153 1.53152 -5.16408e-19)
(0.88058 1.69611 0)
(0.90476 1.53399 -2.38558e-19)
(0.813164 2.04951 0)
(0.811143 1.96048 0)
(0.88923 2.54713 7.74087e-19)
(0.951833 3.39461 8.27936e-19)
(0.851805 3.235 -6.38722e-19)
(0.529721 0.97947 0)
(0.654661 0.934761 -6.51026e-20)
(0.757492 0.792294 2.43236e-19)
(0.818669 2.08376 0)
(0.677632 2.85002 -3.78282e-19)
(0.584256 2.52796 0)
(0.673171 0.611883 -1.69489e-19)
(0.742466 0.656412 2.83562e-19)
(0.751053 0.611272 -2.89587e-19)
(0.66817 0.5879 -3.29398e-20)
(0.678029 0.590347 -1.52335e-19)
(0.856553 3.1025 -6.28179e-19)
(0.811106 3.22691 7.50369e-19)
(0.855053 2.61486 -1.32873e-18)
(0.765035 2.42955 8.84751e-19)
(0.473015 2.64344 9.57674e-19)
(0.723309 2.87753 -5.37751e-21)
(0.562516 3.00307 -5.68457e-19)
(0.700927 2.44275 -5.52098e-20)
(0.482737 2.48196 -3.74722e-19)
)
;

boundaryField
{
    wall-4
    {
        type            noSlip;
    }
    velocity-inlet-5
    {
        type            fixedValue;
        value           uniform (1 0 0);
    }
    velocity-inlet-6
    {
        type            fixedValue;
        value           uniform (0 3 0);
    }
    pressure-outlet-7
    {
        type            zeroGradient;
    }
    wall-8
    {
        type            noSlip;
    }
    frontAndBackPlanes
    {
        type            empty;
    }
}


// ************************************************************************* //
