/*--------------------------------*- C++ -*----------------------------------*\
  =========                 |
  \\      /  F ield         | OpenFOAM: The Open Source CFD Toolbox
   \\    /   O peration     | Website:  https://openfoam.org
    \\  /    A nd           | Version:  9
     \\/     M anipulation  |
\*---------------------------------------------------------------------------*/
FoamFile
{
    format      ascii;
    class       volScalarField;
    location    "4";
    object      p;
}
// * * * * * * * * * * * * * * * * * * * * * * * * * * * * * * * * * * * * * //

dimensions      [0 2 -2 0 0 0 0];

internalField   nonuniform List<scalar> 
918
(
0.325405
0.954074
0.0114055
0.323225
0.000898219
0.922821
-0.718875
0.365754
0.30733
-0.0988402
0.0209209
0.274678
0.777476
0.550176
-1.49339
0.0262765
0.398441
-0.826426
0.279289
0.0139116
0.571465
0.324556
0.317422
0.280386
0.326941
0.615483
0.657614
0.00701714
0.00256631
0.00748012
0.00398946
0.00256882
0.0154076
0.807011
0.857655
0.879986
0.269772
-0.116382
-0.470424
-0.580025
-0.527582
-0.836582
0.366842
0.379003
-0.34563
0.357211
0.365468
0.277525
0.303804
0.305694
0.306482
0.309125
0.313503
0.267881
-0.127864
-0.210363
-0.0784574
-0.0534147
0.0828159
0.0231247
0.0204338
0.0283063
0.0291424
0.222901
0.27254
0.276807
0.285886
0.286543
0.893554
0.866313
0.892049
0.803071
0.821658
0.756875
0.727588
0.565733
0.586077
0.53148
0.528158
-1.89518
-2.67574
-0.980592
-0.690749
0.00233122
0.0282944
0.0418663
0.391485
0.40525
0.392615
0.403633
0.664229
-0.685747
-0.899765
0.289989
0.286382
0.314663
0.308764
0.295858
0.290921
0.0147473
0.019829
0.00936204
0.0126352
0.00679039
0.460794
0.429447
0.268184
0.277691
0.289596
0.302225
0.297927
0.0681687
0.336888
0.353042
0.293571
0.516475
0.560454
0.555672
0.629247
0.595464
0.689737
0.715018
0.00892238
0.00469914
0.0125084
0.0145718
0.0114241
0.262062
0.257672
0.278223
0.270398
0.270603
-0.201669
-0.32122
0.0129471
0.187426
-0.339374
-0.459235
-0.740687
-0.667136
-0.93998
0.76266
0.370599
0.38847
-0.259403
-0.253341
-0.375816
-0.202322
-0.294823
0.277211
0.279263
0.276335
0.279033
0.274362
0.284506
0.308632
0.305731
0.305722
0.292528
0.360756
0.233415
0.206996
-0.443359
-0.223885
-0.413461
-0.0217866
-0.0205079
0.0950699
0.102444
0.0719109
0.0709276
0.00304524
0.00773757
0.0196611
0.0307837
0.0239585
0.219064
0.20548
0.227809
0.241164
0.273016
0.274729
0.270807
0.273315
0.67328
0.697025
0.704691
0.678248
-3.4713
-5.73582
-0.370627
-0.191765
0.00490439
0.00557448
0.00143885
0.00553084
0.00690236
0.00276768
0.0516679
0.0503379
0.0400488
0.0316872
0.383831
0.389701
0.651083
0.707653
0.595394
0.585868
0.281979
0.284054
0.292565
0.286517
0.0258524
0.0212323
0.0251081
0.360074
0.382724
0.380159
0.0354324
-0.0532532
0.111488
0.13655
0.37355
0.365869
0.380611
0.388263
0.4322
0.727596
0.743104
0.743013
0.754365
0.801522
0.820562
0.778783
0.243197
0.252179
0.248152
0.283892
0.273932
0.283425
0.274958
0.27308
0.272828
-0.377334
-0.638754
0.633748
0.520414
0.290626
0.453381
0.739383
0.777892
0.388933
0.380695
0.393439
-0.15988
-0.247877
0.186507
0.158404
0.163586
0.189327
0.174935
0.65242
0.614498
0.663299
0.633954
0.598922
0.619534
-0.592339
-1.72151
-1.00698
0.230922
-0.0051557
0.0999011
0.0661973
0.0470337
0.0524732
0.687731
0.743453
0.39373
0.483587
0.479794
0.505117
0.52247
0.565786
0.501453
0.530831
0.563695
0.553354
0.715114
0.654802
0.725828
0.742163
0.761488
-0.0703343
-0.0984009
-0.175865
0.109728
0.143253
0.129475
0.719397
0.728482
0.772602
0.26712
0.281942
0.0114726
0.0203945
0.304559
0.307114
0.0116159
0.0142727
0.0388629
-1.36771
-0.0115286
0.288628
0.282376
0.298692
-0.0832845
0.264415
0.0295027
0.0920709
0.069883
0.272705
0.23292
0.201041
0.0183606
0.0200636
0.0155585
-0.331601
0.293865
0.277664
0.300285
0.299688
0.305692
0.0145357
0.0127478
0.0117853
0.0102544
0.0177043
0.0226651
0.263472
0.271151
-0.189099
0.295842
0.297607
0.301021
0.287506
0.300215
0.292625
0.0183986
0.0135746
0.0077853
0.0266885
0.138893
0.397479
0.61792
0.256749
-0.0160042
-0.312352
0.267839
0.34632
0.200218
0.443554
0.345926
0.335292
0.0383104
-0.0653325
0.0174957
-0.0490339
0.284375
0.284133
0.274802
0.27935
0.292045
0.288713
0.295058
0.290224
0.293762
0.298788
-0.0234759
-0.0531044
-0.0993177
-0.146499
0.286296
0.361261
0.213644
0.220936
0.129174
0.0349151
0.033868
0.0305799
0.02282
0.0676592
0.0700029
0.0785525
0.073163
0.0490461
0.0490778
0.0693394
0.0594394
0.0690904
0.270644
0.266443
0.271901
0.290611
0.241437
0.240032
0.21507
0.231127
0.22234
0.178634
0.195047
0.178259
0.0148291
0.0132465
0.0103314
0.0273762
0.0274213
0.0224642
0.0188916
0.00117043
0.00799916
0.0181026
0.0211641
0.0219775
-0.243054
-0.386934
0.612512
0.531426
0.323828
0.288532
0.290503
0.278866
0.285141
0.301521
0.307272
0.302086
0.281793
0.274765
0.272198
0.272233
0.276227
-0.0816128
-0.27116
-0.0714153
-0.17275
-0.121845
0.353528
0.138686
0.110816
0.0915878
0.263778
0.217632
0.312366
0.585543
0.633754
-0.97479
-0.538149
-0.83277
-0.398055
-0.680617
0.413931
0.469564
0.471048
0.428486
0.367802
-0.377241
-0.00507341
-0.123817
-0.0583713
0.117125
0.000175305
0.309256
0.34975
0.368487
0.317778
0.336806
0.329135
0.298801
0.306993
0.32849
0.346959
0.198596
0.0532045
0.0235337
-0.00615504
0.369451
0.231751
0.279644
0.23429
0.280229
0.280413
0.282222
0.274856
0.273859
0.272846
0.272473
0.274961
0.28381
0.285155
0.281954
0.282516
-0.023754
-0.011118
-0.0242494
-0.199051
-0.170497
-0.262866
-0.0911889
0.106518
0.0654255
0.273571
0.375706
0.0702162
-0.09168
-0.0548357
0.02595
0.155572
0.136537
0.118033
0.143189
0.173762
0.141633
0.201572
0.182729
0.0386318
0.0559239
0.0345825
0.0305462
0.0941424
0.108547
0.10938
0.0531009
0.0637075
0.03219
0.039133
0.0828644
0.0560268
0.0731845
0.075271
0.0264894
0.0320945
0.04254
0.0382309
0.0567485
0.0399984
0.265252
0.2687
0.270371
0.269516
0.284554
0.298525
0.269942
0.25838
0.245671
0.25376
0.22692
0.239578
0.233547
0.243678
0.255871
0.264831
0.267409
0.26924
0.255815
0.253774
0.246114
0.247393
0.226007
0.21178
0.205471
0.0275317
0.0137988
0.0195507
0.0278873
0.0176899
0.0192166
0.0541543
0.0460015
0.0600999
0.0270872
0.0502595
0.0154475
0.022157
-0.0644735
0.0485842
-0.225763
-0.29155
-0.370699
0.602408
0.657874
0.525215
0.452055
0.46643
0.550044
0.583081
0.374624
0.459473
0.43194
0.67451
0.68786
0.259758
0.261219
0.277759
0.268008
0.269299
0.0660197
0.204352
0.14753
0.250485
0.12141
0.0903605
0.472158
0.432677
0.510516
0.474462
0.345385
0.361621
0.311376
0.339767
0.349092
0.192406
0.266117
0.292612
0.271369
0.290541
0.308678
0.282879
0.298161
0.269871
0.252308
0.250609
0.19933
0.211713
0.192588
0.194445
0.25744
0.250165
0.251396
0.249183
0.266873
0.290513
0.289243
0.299568
0.308102
0.248913
0.218742
0.222846
0.247378
0.219273
0.227348
0.237868
0.459445
0.484731
0.200448
-0.344016
-0.278791
-0.345654
-0.413015
-0.213414
0.0642338
-0.706609
-0.583273
-1.05908
-0.0980322
0.139682
0.164319
0.187616
0.321682
0.266221
0.232502
0.314429
0.345498
0.354849
0.362409
0.371896
0.261727
0.283273
0.255229
0.286068
0.123727
0.199138
0.202214
0.186782
0.104505
0.138962
0.213297
0.187246
0.123791
0.110788
0.229447
0.133367
0.169134
0.221735
0.187397
0.156013
0.262398
0.331538
0.31967
0.289156
0.233447
0.2364
0.254893
0.283142
0.292807
0.306115
0.272145
0.275952
0.274114
0.27755
0.27171
0.273039
0.272096
0.279186
0.278702
0.290397
0.285939
0.0226923
0.0308766
0.000582066
-0.00196438
0.0574261
0.0302328
0.0253501
0.0434309
0.0463825
0.0501147
0.0273127
-0.00659
0.0145904
0.0360958
0.174953
0.191951
0.188252
0.128429
0.24756
0.330694
0.381362
0.337227
0.214489
0.241885
0.266493
0.0845435
0.0877239
0.0777481
0.100957
0.103099
0.0353903
0.0242536
0.0252325
0.0449593
0.036022
0.0237517
0.0255858
0.0292149
0.027229
0.0336698
0.0277347
0.2626
0.25259
0.233316
0.232262
0.232836
0.249191
0.26126
0.26077
0.267034
0.265042
0.259975
0.26391
0.267376
0.0251683
0.0220471
0.0197562
0.0262045
0.0329681
0.0305482
0.0272491
0.296363
0.167721
0.264118
0.102386
-0.132872
-0.028764
0.52806
0.621727
0.643215
0.653035
0.58546
0.582535
0.639177
0.688023
0.418937
0.537946
0.477678
0.641907
0.644779
0.678268
0.54818
0.362605
0.0578057
0.177488
0.391656
0.175431
0.213804
0.17722
0.158815
0.241946
0.252281
0.29322
0.346192
0.402484
0.416075
0.320114
0.390628
0.256566
0.352221
0.373889
0.425094
0.354122
0.335786
0.357256
0.37533
0.339895
0.363511
0.317123
0.312989
0.319697
0.334078
0.328372
-0.904182
-0.904721
-1.64463
-1.32692
-0.992902
-0.37083
-0.244466
-0.175493
-0.0745964
0.112456
0.157597
0.214789
0.212457
0.131279
0.176777
0.15981
0.238046
0.230526
0.219019
0.138307
0.0776934
0.298013
0.298372
0.308488
0.328758
0.319079
0.332061
0.264284
0.267393
0.26935
0.265196
0.253824
0.252995
0.11407
0.0902472
0.133963
0.113196
0.0760009
0.0764684
0.0379816
0.0259001
0.0227568
0.0298399
0.0256493
0.0418217
0.31856
0.328944
0.154281
0.252454
0.0386847
-0.0483326
-0.089997
0.101421
0.188491
0.213317
0.460907
0.557809
0.495805
0.525093
0.434677
0.447582
0.581447
0.456702
0.549822
0.46659
0.534318
-0.656558
-0.81471
-0.833928
-0.418945
-0.445393
-0.531325
-0.708444
-0.819509
-0.710271
0.167479
0.178166
0.18691
0.169805
0.185186
-0.463366
-0.26312
-0.370555
-0.0756924
0.355029
-0.0219701
0.158614
0.0633848
0.293168
)
;

boundaryField
{
    wall-4
    {
        type            zeroGradient;
    }
    velocity-inlet-5
    {
        type            zeroGradient;
    }
    velocity-inlet-6
    {
        type            zeroGradient;
    }
    pressure-outlet-7
    {
        type            fixedValue;
        value           uniform 0;
    }
    wall-8
    {
        type            zeroGradient;
    }
    frontAndBackPlanes
    {
        type            empty;
    }
}


// ************************************************************************* //
