/*--------------------------------*- C++ -*----------------------------------*\
  =========                 |
  \\      /  F ield         | OpenFOAM: The Open Source CFD Toolbox
   \\    /   O peration     | Website:  https://openfoam.org
    \\  /    A nd           | Version:  9
     \\/     M anipulation  |
\*---------------------------------------------------------------------------*/
FoamFile
{
    format      ascii;
    class       surfaceScalarField;
    location    "4";
    object      phi;
}
// * * * * * * * * * * * * * * * * * * * * * * * * * * * * * * * * * * * * * //

dimensions      [0 3 -1 0 0 0 0];

internalField   nonuniform List<scalar> 
1300
(
3.75095
5.62643
-6.44237
3.75095
-6.38758
5.62643
-5.7755
5.7755
-1.69476
1.69476
1.88098
1.86998
-5.63648
5.63648
-5.50173
5.50173
-3.01849
3.01849
-5.24648
5.24648
-5.09991
5.09991
4.66286
-4.66286
-5.23456
5.23456
-2.18003
2.18003
-6.18241
6.18241
3.1596
-3.1596
-5.54402
5.54402
-0.671484
0.671484
-0.565886
4.31684
3.18507
3.18507
-2.80702
2.80702
-4.84906
4.84906
6.22779
-6.22779
9.73126
-9.73126
-3.28889
-3.29616
1.37106
-8.08288
-5.01652
-5.01652
-8.44027
8.44027
-2.81384
2.81259
3.15971
-3.15971
-1.34471
1.34471
-5.4233
-0.3522
-5.4233
6.13319
-0.357685
6.13319
-1.81419
0.119429
-1.81419
4.39611
-4.39611
1.55559
0.13917
1.55559
3.14074
-3.14074
-1.88405
3.76503
1.8669
-1.84912
6.16596
-1.90183
3.77181
-4.97643
4.97643
-5.70189
0.0654185
-5.70189
5.58551
0.0509612
5.58551
-5.40729
5.40729
-5.53877
0.0370339
-5.53877
5.50642
-0.00469181
5.50642
3.20474
-3.20474
-3.04253
0.0240414
-3.04253
2.99519
0.023298
2.99519
0.353339
5.27309
-5.97977
8.79236
-5.27309
0.0266073
5.20783
0.0386523
5.20783
-5.11862
0.0187108
-5.11862
5.06678
0.0331209
5.06678
4.61089
0.0519772
4.61089
-4.82984
0.166981
-4.82984
-3.30517
-3.2636
-5.32911
0.094548
-5.32911
-2.18124
0.00120844
-2.18124
2.13131
0.0487224
2.13131
-3.86018
3.86018
-6.43388
0.251468
-6.43388
3.07814
0.081462
3.07814
1.86057
1.89038
5.61153
-5.61153
2.45192
-5.53996
-0.00405182
-5.53996
-5.5309
-4.20035
5.5309
0.0131135
-1.17011
0.498625
-1.17011
3.14144
0.0436247
3.14144
2.96378
0.031413
-2.96378
0.15676
3.62664
-3.62664
2.1243
0.682722
2.1243
-5.56326
5.56326
4.99656
0.0702287
-4.99656
0.147495
6.16385
0.063941
6.16385
-6.20818
-0.0196114
-6.20818
3.33997
-6.63613
-3.28657
5.11336
0.121192
-5.11336
0.0968439
3.19008
-0.0303669
3.19008
-3.11083
3.11083
-3.15985
0.000136617
-3.15985
-1.46415
0.119443
-1.46415
1.51408
-0.169375
1.51408
-4.98834
-0.434959
-4.98834
-6.38696
-0.0469205
6.38696
-0.253772
2.87785
-2.87785
-1.95242
0.138228
-1.95242
-4.61731
-0.371032
4.61731
-0.221204
-4.17038
-0.225732
-4.17038
-3.13816
-0.0216888
3.13816
0.0025798
3.12195
0.0194915
-3.12195
-0.0187905
-1.87457
3.76495
-1.87639
3.74329
-4.74019
-0.236244
-4.74019
5.05674
-0.0803119
5.05674
5.90301
0.279397
-5.90301
0.201121
5.51899
0.0665219
5.51899
-5.36153
-0.0457607
-5.36153
5.4388
-0.0315102
5.4388
5.54061
-0.0216164
-5.54061
0.00184156
5.52217
-0.0157474
5.52217
3.26877
-0.0640343
3.26877
-3.19021
-0.0145341
-3.19021
3.11634
-3.11634
3.09913
0.0172039
-3.09913
0.0565984
-11.1275
11.1079
-0.0378199
-11.0897
5.17001
5.17001
3.63653
0.974353
3.63653
-5.02374
0.1939
-5.02374
3.3004
-6.58698
3.27306
-6.57823
3.30523
-11.3881
3.31252
-6.57612
5.45245
-5.45245
5.3861
0.0663466
-5.3861
0.0569954
-2.17529
-0.00594747
-2.17529
-3.71901
-0.141166
-3.71901
4.07842
-0.218247
4.07842
-3.12283
3.12283
-3.10022
-0.0226154
3.10022
-0.0220737
5.50321
0.0189602
-5.50321
-0.0367515
1.39959
0.155997
-1.39959
0.229485
3.79602
-0.169381
3.79602
-3.45677
-0.169871
-3.45677
-2.16061
-0.0146807
2.16061
-0.0363131
-5.80925
0.245993
-5.80925
-11.1884
0.0986725
-11.1497
-6.10951
-6.10951
2.33076
11.1231
-3.17544
-0.014768
3.17544
0.0146437
3.13657
-0.0137417
-3.13657
0.0257448
-3.11235
-0.00398931
3.11235
-0.001517
-1.74917
0.285016
-1.74917
-2.27077
2.27077
-1.87331
-0.397456
1.87331
-0.359228
3.0645
-0.186649
3.0645
2.06783
0.06348
-2.06783
0.11541
-4.04965
-0.120728
-4.04965
5.17128
-0.114542
5.17128
-3.34332
-0.113455
3.34332
-0.0745439
-0.0313268
11.1392
-5.13868
0.0200681
5.13868
-11.2032
11.2233
-2.51682
0.767651
2.51682
1.11971
5.29288
0.27038
-5.29288
0.269136
5.46981
-0.0310132
-5.46981
0.0173646
-3.53905
-0.179959
-3.53905
-4.37685
-0.363334
4.37685
-0.298428
-11.4224
-0.207328
11.6297
-11.3892
6.01658
0.147269
-6.01658
11.3705
-2.60268
-0.275166
2.60268
-0.331915
3.1831
-0.118606
3.1831
3.93759
-0.141566
-3.93759
-0.112057
-5.31474
-0.0467843
5.31474
-0.14346
-3.34732
-0.191729
3.34732
-0.164218
-4.17547
4.21909
1.9905
-3.33944
-3.29669
-7.53979
1.7996
1.96534
4.25153
-7.00015
-4.38797
-6.9033
7.35556
-7.08642
-9.44526
9.49724
7.16472
-7.39045
-5.81878
5.79671
6.4019
-6.39932
1.84669
1.91833
10.6606
-10.5952
-10.1937
9.95748
10.2156
-10.1786
10.5342
-10.58
-12.1711
12.1401
-5.68329
5.70733
-6.61161
6.59708
-6.68196
6.60741
-3.2561
-3.32213
9.05207
-8.95752
11.6618
-11.6658
-11.2615
11.513
3.29933
0.919758
3.31882
-1.92093
3.76762
-1.85088
3.84138
3.28655
-6.54265
3.30043
-6.59712
5.9813
5.6805
-5.99441
-1.54538
-5.87837
5.848
-5.79539
5.79387
10.0215
-10.3737
-1.86967
3.788
-1.87362
3.83896
-3.3886
-2.43018
3.30714
0.94439
5.53243
3.51963
-5.65363
-1.24968
-7.54044
7.39887
-7.7839
7.61403
-0.574459
5.85181
-5.27735
4.2746
-1.4859
7.33771
5.86966
6.06356
5.88439
-5.61401
1.20204
-6.47939
-6.3319
-2.63763
2.77586
2.67489
-2.53572
5.85048
1.31424
5.62927
-5.44462
-1.94583
-5.56535
3.85835
1.93836
3.83574
4.08562
2.31628
4.06393
3.06069
-3.06638
0.00569295
-3.07479
6.13548
0.721621
-5.50497
-4.56058
6.98332
3.67731
7.03428
-7.22793
-3.36728
-7.02681
-6.03079
-4.16293
-6.39412
6.44421
3.51326
6.3639
-7.89479
7.75133
6.73549
3.48011
6.7308
-6.8158
-3.36277
-6.81396
10.2321
-2.63851
-7.59356
-6.79519
-5.37589
6.8267
3.70753
7.44076
4.69931
7.45812
3.51756
6.71452
-7.22509
1.8492
-3.82076
-1.86253
-3.76416
3.65235
2.05498
3.67564
-4.17022
-2.4414
-4.18498
-4.19309
-2.48887
4.25712
2.33996
-4.25502
-3.52889
4.36847
2.23894
2.98583
-7.3738
3.59029
-6.91242
-6.28002
-2.6775
-6.22302
3.95875
2.5645
-6.52325
-2.5839
10.7264
-5.04589
9.18101
-7.22966
-4.43619
-7.26641
-8.59842
-2.66311
-8.64534
-5.48645
5.30649
-5.51874
5.30049
10.3698
-5.67187
-4.69797
-3.85781
-2.54151
3.87661
-0.557781
-3.80822
3.81391
-0.0405974
3.80078
4.72054
4.16276
-3.85549
-1.9399
-3.82974
3.84181
1.95206
3.83782
8.35646
1.66506
7.99877
-6.73889
-3.63482
-7.17385
6.56925
-6.44981
2.98815
-3.00283
5.05364
2.56039
-4.88426
-2.65618
5.90581
-2.89141
-3.01441
-12.3125
11.2224
1.09009
-4.97474
-0.700143
-0.0286586
-5.66009
-3.78517
5.49311
0.570448
11.7928
8.00765
-5.50005
5.74604
6.12963
6.19986
-0.132035
4.82976
-4.06211
3.01242
-1.34721
-1.66521
5.35216
-5.72319
-1.82169
-5.13
3.3083
-0.0939198
2.39995
-1.90132
-2.12769
-0.509942
-2.01228
1.69823
0.976663
1.85423
0.9572
1.81866
-2.83557
0.597636
2.23793
-1.87837
-1.93809
-3.38863
-0.9743
4.36293
5.42092
1.97796
-5.30886
-0.256489
2.80096
-2.75224
-0.63927
-2.74936
2.03447
-2.67374
-3.23824
-1.89172
5.12996
-3.34469
-0.485053
3.35843
0.477302
-3.76699
-2.11138
3.76685
0.29708
-3.00616
6.07613
-3.06997
-4.94606
2.59622
3.53926
4.53458
-4.73928
2.39041
2.34887
-1.20002
6.00686
1.02742
6.07338
-9.09123
5.72396
7.66594
3.84706
-7.94533
0.918521
-8.17271
9.58335
-8.35648
-1.22686
4.99205
4.5913
5.16003
5.20981
-3.77052
8.93055
-1.24759
-7.10889
9.42031
-5.57325
5.72542
-11.2987
-10.9352
3.82634
-6.70934
8.38819
-1.67885
-2.49488
-5.39991
9.20422
-0.849449
-8.35477
5.51445
-5.30194
-5.32049
10.6224
-7.94045
8.68325
-2.53706
-6.14619
-6.6045
-3.97549
6.65128
1.10005
-9.75364
11.6028
-3.03913
5.85697
0.87383
5.84122
3.81003
-5.89084
2.08082
4.13042
-6.66749
2.48171
-8.37255
-4.75612
9.45177
-4.69565
-7.43362
-6.51809
-0.915522
2.04723
9.55561
-6.74654
5.21665
1.52989
3.32151
0.516312
-3.33871
-0.425453
0.326256
4.36325
-4.68951
4.0019
4.03331
3.37417
0.989081
3.82588
2.02213
-3.84052
-0.344462
-3.91933
1.43046
-1.57937
-3.41001
4.84048
-3.80174
0.391731
-2.64858
-3.45028
6.09887
-4.51111
3.03116
3.04497
4.98322
-4.74152
1.29124
-2.37829
-2.36323
2.51051
-4.08988
1.89066
2.94982
4.1296
0.600711
4.80647
4.6453
-7.37097
0.458546
8.16493
-6.91525
1.63566
5.82247
-6.8523
0.33421
-5.88881
1.13052
-6.17641
-5.39273
6.07336
-8.73647
-5.2253
7.88461
0.11416
-7.63084
-1.0145
-3.83636
-1.65009
-4.02809
-1.61554
-3.9032
-5.38605
-1.26213
-4.12393
4.04436
-4.14281
-2.25132
4.44123
0.859256
-4.8711
4.59593
-4.68015
4.56154
0.180052
3.63386
4.34281
1.8013
-2.43384
4.23514
-6.81716
8.48223
-9.64291
2.82575
3.1387
-6.77352
-6.50421
3.76226
2.807
3.59288
6.35512
-8.35626
2.00114
-6.88177
7.68241
-0.800635
-10.4811
3.5993
-4.12595
2.75878
0.229375
2.75283
0.718067
2.31642
-3.03448
-2.28477
-2.32108
-2.19404
-3.16662
5.36066
1.05431
-3.21357
2.15926
-3.19898
4.25329
-0.19227
-3.0213
5.12576
-2.80935
5.35514
-3.39125
1.96388
3.09647
5.21534
-2.11887
4.13858
-1.57819
1.68421
-3.80308
-1.48241
-2.91785
4.97284
-3.18101
3.57274
-0.283327
3.85607
-3.93913
1.04772
-0.564952
3.46836
3.62512
4.04748
-3.0584
2.77001
-4.3482
-1.03308
-3.74749
-0.797666
-3.01991
-4.09752
7.11742
4.81185
-7.83175
-4.76424
7.23018
-2.46594
6.09927
-5.29775
-0.801527
-3.21664
-3.23317
2.93163
1.89813
7.9974
-0.364747
-4.933
-4.42685
-3.30714
2.29421
0.718216
-3.31679
4.40688
3.34545
-0.945502
0.515097
1.33913
1.94942
-1.43433
0.33271
1.61671
-1.56861
2.06383
0.737133
-2.12731
0.115035
-1.18484
3.21931
1.05309
-2.02976
0.595431
1.29283
-2.64004
4.10687
-1.67131
-2.43556
5.3997
1.48808
-3.15939
3.64191
-3.73583
2.1061
-3.0804
-1.0533
-4.78913
-3.47489
-2.33918
4.49843
-3.02148
4.99944
1.2602
-4.74295
6.00315
-3.36946
1.47774
-2.84951
3.58665
-0.883833
-1.96568
2.58878
2.54118
-2.70614
-0.0432134
-0.117368
2.14171
-2.25908
-0.532033
-2.4104
-4.44613
4.74321
-2.1053
4.49571
2.12985
-1.92963
6.42534
1.79095
-3.72059
-3.15511
-3.64016
-1.37172
3.16286
-0.905074
-5.90888
-7.05126
5.9305
0.142882
-8.92776
10.0667
-1.13898
-5.25044
-0.473514
5.46556
-7.34357
0.676088
-4.86186
5.20487
6.23229
6.37517
-8.2434
-0.111378
-4.73013
1.2449
-5.97503
5.8362
-2.70447
6.53081
-7.08533
4.83402
-6.22608
5.30395
-0.671085
5.47485
-3.39403
2.11871
-6.09421
-4.99416
6.99368
-3.51357
7.86751
-4.06972
11.9372
-7.10885
6.88724
5.05
-1.36505
-5.90136
-6.84606
5.48101
0.0411765
5.8824
4.7869
-2.76478
4.44244
2.08884
-4.46713
-2.00104
-6.26738
1.80025
-3.22241
-1.84965
3.64991
3.13357
3.64988
1.28668
-3.22443
6.48333
-7.39885
-1.78768
-3.60505
6.73718
-1.25617
3.87542
-7.48047
-2.30099
5.36597
-0.908089
-4.45788
0.305902
-5.53121
2.61868
-8.14988
6.1178
-7.13229
1.57298
-5.69893
-3.29812
-3.63003
-1.34637
-3.33378
-4.6748
3.32843
-1.0755
3.52043
-5.54748
4.63939
-2.13493
5.46336
-3.45017
-0.577916
3.61439
0.947151
6.41051
-1.97791
-4.5263
0.297614
3.88212
-4.17973
2.59182
-6.07543
-2.19331
2.62833
2.77137
-5.93663
-0.83689
-5.36319
-2.62883
5.43583
4.60135
9.4132
1.05694
5.89835
-0.46252
6.95528
3.13036
2.77114
-3.5899
5.59104
3.52753
6.35327
-0.834635
2.79852
1.9182
1.9194
0.832837
2.23183
1.39329
3.27955
0.245065
-2.07601
4.88532
-8.19246
-0.0476814
-7.21811
2.27913
6.27643
-3.9973
3.20207
-2.48385
-0.977664
-0.685707
-1.42236
2.10807
-2.35092
-2.36786
-0.75115
-1.5945
2.18993
1.62482
-1.43878
-0.91214
0.319756
-3.79464
2.76064
-2.80385
-0.262673
5.74047
-2.49264
0.233567
-1.0149
-2.17684
-2.68678
2.57174
6.10454
0.3208
3.03457
5.06401
2.95262
0.187846
4.35176
-6.03061
-4.02079
-6.14199
-0.305784
5.15978
1.93689
7.61873
6.98688
5.73071
-1.74976
-9.14862
7.28193
-1.69089
6.4813
-2.02341
-6.12647
6.46903
2.01319
-6.58319
-0.549097
-6.67557
-8.36646
-0.491714
5.1311
-5.9188
5.34088
3.69079
0.433133
-2.74219
-0.887839
3.13965
-0.368514
6.58677
-2.09304
-8.04145
10.1345
-4.1834
4.13572
1.14181
3.26507
3.24988
0.766028
-7.27542
-11.2727
-1.49977
-1.14028
-3.93533
0.4276
-2.05242
5.54595
-1.41023
4.74442
8.72425
7.74659
-3.281
-4.55076
5.74694
-1.00252
6.74407
)
;

boundaryField
{
    wall-4
    {
        type            calculated;
        value           uniform 0;
    }
    velocity-inlet-5
    {
        type            calculated;
        value           uniform -3.75095;
    }
    velocity-inlet-6
    {
        type            calculated;
        value           uniform -5.62643;
    }
    pressure-outlet-7
    {
        type            calculated;
        value           nonuniform List<scalar> 8(6.44237 6.38758 6.58505 6.71182 6.56877 6.62654 6.57346 6.61775);
    }
    wall-8
    {
        type            calculated;
        value           uniform 0;
    }
    frontAndBackPlanes
    {
        type            empty;
        value           nonuniform List<scalar> 0();
    }
}


// ************************************************************************* //
