/*--------------------------------*- C++ -*----------------------------------*\
  =========                 |
  \\      /  F ield         | OpenFOAM: The Open Source CFD Toolbox
   \\    /   O peration     | Website:  https://openfoam.org
    \\  /    A nd           | Version:  9
     \\/     M anipulation  |
\*---------------------------------------------------------------------------*/
FoamFile
{
    format      ascii;
    class       volVectorField;
    location    "4";
    object      U;
}
// * * * * * * * * * * * * * * * * * * * * * * * * * * * * * * * * * * * * * //

dimensions      [0 1 -1 0 0 0 0];

internalField   nonuniform List<vector> 
918
(
(0.984474 -0.0152039 0)
(0.00485724 2.96631 0)
(-0.016471 1.71717 0)
(0.949942 0.0275941 0)
(-0.00891758 1.70294 -2.56821e-21)
(-0.00702393 2.94885 -1.96272e-18)
(1.10834 1.49631 6.30162e-19)
(0.572006 0.303895 -8.12678e-21)
(0.998013 -0.00207992 0)
(0.00769026 1.69182 0)
(0.0154768 1.67089 0)
(0.915526 0.0228473 0)
(0.0123314 2.93077 0)
(-0.0183091 2.82017 0)
(-0.032032 3.17387 1.21628e-18)
(0.00754726 1.66078 -2.52247e-20)
(0.704124 0.139622 6.07546e-19)
(0.265034 1.9631 6.16569e-19)
(0.962288 0.0345186 0)
(0.00819419 1.68363 0)
(0.254385 0.310981 -5.72853e-19)
(0.975943 -0.00814075 0)
(0.977217 -0.0147507 0)
(0.967716 -0.00191531 0)
(0.843728 0.0233598 0)
(0.0392349 2.63451 0)
(-0.0122635 2.91558 6.74594e-19)
(-0.0033302 1.72763 0)
(0.00449381 1.75563 0)
(0.00225977 1.72764 0)
(0.00958977 1.78933 0)
(-0.00895866 1.71793 2.03585e-21)
(-0.00195747 1.65699 0)
(-0.0208701 2.98781 -6.90617e-23)
(-0.0166748 3.00513 1.52548e-18)
(0.00204449 3.00016 0)
(0.960202 0.00487766 0)
(0.35533 0.494204 -1.19786e-19)
(1.03176 1.5526 -6.21043e-19)
(1.15352 1.26982 7.05376e-19)
(0.887872 1.75396 -1.41966e-19)
(0.971394 1.73135 8.85582e-19)
(0.608658 0.337055 7.92938e-21)
(0.578779 0.292717 0)
(1.26531 0.631903 0)
(0.597707 0.350492 3.53198e-20)
(0.537962 0.331736 -3.66474e-20)
(0.952515 -0.00509317 0)
(0.997968 0.000414882 0)
(0.99963 0.00208571 0)
(0.974678 -0.030419 0)
(0.999984 -0.00479995 0)
(1.00482 -0.000343017 0)
(0.00899904 1.62281 -4.97368e-19)
(0.00205264 1.76832 0)
(0.0598374 1.73337 0)
(0.00370019 1.76643 0)
(0.00609876 1.67761 0)
(0.00301517 1.664 0)
(0.010889 1.72256 0)
(0.0145432 1.6758 0)
(0.00672423 1.72149 0)
(0.0114524 1.66786 0)
(0.966399 -0.00858945 0)
(0.952017 0.0100606 0)
(0.914326 0.0108452 0)
(0.933152 0.0134827 0)
(0.910085 -0.00564083 0)
(0.0146248 3.00052 7.18694e-19)
(0.0113435 3.00788 0)
(0.00605714 3.00263 0)
(0.0137352 2.99713 7.98108e-24)
(0.00836439 2.9588 -1.06816e-18)
(0.0151917 2.9823 0)
(0.0136134 2.90237 0)
(0.00565742 2.93655 1.47315e-24)
(-0.00966033 2.83679 0)
(0.0123581 2.92929 0)
(-0.0274617 2.78656 0)
(0.212225 3.467 0)
(-0.123162 3.54291 0)
(0.106252 3.25268 -1.12784e-18)
(-0.0125693 3.01119 0)
(0.00486543 1.75127 0)
(0.00350956 1.72134 2.48873e-20)
(0.0178705 1.66999 -3.71773e-20)
(0.73393 0.173849 -2.10858e-19)
(0.709111 0.112005 -2.14182e-19)
(0.727915 0.21279 -6.34582e-19)
(0.66974 0.192293 -4.15995e-19)
(0.189986 1.34458 0)
(0.357312 2.03879 -6.32709e-19)
(0.476612 2.01474 1.08305e-18)
(0.97838 0.0196426 0)
(0.934907 0.0167057 0)
(1.00284 -0.00171769 0)
(0.985592 0.0233251 0)
(0.999033 0.021964 -1.49429e-18)
(0.991205 0.0382251 1.15227e-18)
(0.00339778 1.72721 0)
(-0.0042211 1.68587 0)
(0.00288218 1.73906 0)
(0.0121962 1.72981 0)
(0.0134241 1.67876 0)
(0.301906 0.437527 1.59127e-19)
(0.450351 0.351379 0)
(0.989396 0.0101216 0)
(0.960068 0.0150487 0)
(0.925944 -0.00627987 0)
(0.908492 0.018727 0)
(0.90434 -0.00397398 0)
(1.09165 -0.0049543 0)
(0.846371 0.0673531 0)
(0.768865 0.0288556 8.81268e-19)
(-0.0411891 2.86121 3.1194e-19)
(0.0330794 2.92938 0)
(0.062307 2.89917 0)
(-0.00759595 2.73338 0)
(-0.0160185 2.98863 6.25476e-19)
(-0.0254107 2.89982 0)
(-0.0148534 2.9918 -1.96744e-18)
(-0.00939285 2.93099 6.77448e-19)
(0.00645208 1.77093 0)
(0.00761797 1.76656 0)
(-0.00689424 1.71921 -3.01187e-22)
(0.00169157 1.70664 0)
(-0.0127656 1.65547 0)
(0.989774 0.0086947 0)
(0.962361 0.00352602 0)
(0.936966 -0.00648962 0)
(0.986223 0.0134882 0)
(0.959172 0.0105776 0)
(0.519563 0.826844 1.3472e-19)
(0.325389 0.714495 0)
(0.610514 0.791824 -4.96762e-21)
(0.432318 0.500611 0)
(1.09207 1.31923 -1.88607e-19)
(1.20878 1.00862 3.94914e-19)
(0.561626 2.02578 0)
(0.723709 1.93023 0)
(0.769507 1.92402 0)
(0.576773 1.11581 -3.45691e-19)
(0.64872 0.314972 0)
(0.628043 0.24055 1.11439e-19)
(1.15758 1.08299 0)
(1.20242 0.885986 0)
(1.22406 0.808573 -3.28565e-19)
(1.23116 0.688623 0)
(1.27924 0.435822 5.83886e-20)
(0.984947 -0.000620505 0)
(0.980553 -0.0042539 0)
(0.951095 -0.0133307 0)
(0.974044 0.0133266 0)
(0.979243 0.0057588 0)
(0.945634 0.0137694 0)
(0.999653 0.00193112 0)
(0.995928 0.001841 0)
(0.99953 0.00122655 0)
(0.0168795 1.64793 2.67872e-19)
(0.0578395 1.57096 0)
(-0.0153618 1.66369 4.49515e-19)
(-0.0146975 1.61015 -3.85131e-19)
(0.18395 1.92369 -5.1892e-19)
(0.0511906 1.79858 0)
(0.113902 1.80445 0)
(0.0132533 1.74435 0)
(-0.0112391 1.67316 0)
(0.00103643 1.69675 -1.27093e-21)
(-0.00614149 1.65506 0)
(-0.00439511 1.7125 -6.16027e-20)
(-0.00946011 1.66855 1.20473e-19)
(-0.0252315 1.73389 0)
(-0.00446182 1.73638 0)
(-0.016555 1.67242 0)
(0.000725059 1.72151 0)
(-0.00225695 1.67595 0)
(1.01129 0.0085978 0)
(0.986748 0.0151825 0)
(1.00332 0.00783257 0)
(0.966018 0.0108711 0)
(0.940279 -0.00748342 0)
(0.974647 -0.00111199 0)
(0.966457 0.0138116 0)
(0.940038 -0.00848472 0)
(0.00543708 3.06499 -6.29928e-21)
(0.0187324 3.05869 0)
(0.0156173 2.96877 0)
(0.01251 2.8749 0)
(0.719146 3.74498 0)
(0.978681 2.98707 8.80289e-19)
(0.0719363 3.1096 0)
(-0.017817 2.9063 0)
(0.00122557 1.75353 0)
(0.00603128 1.75317 0)
(0.00434098 1.75254 0)
(0.0122379 1.78023 7.75269e-21)
(0.0074205 1.74971 0)
(0.00245738 1.76429 0)
(-0.0133374 1.67675 -1.4133e-21)
(-0.0118129 1.72058 4.37506e-20)
(0.0148822 1.7258 3.77482e-20)
(0.0109926 1.67389 0)
(0.762726 0.127425 3.2728e-19)
(0.726292 0.0696695 -3.15328e-19)
(0.174676 1.419 0)
(0.280701 1.32375 -2.18143e-19)
(0.128231 1.42451 -6.46568e-19)
(0.148444 1.38504 6.45424e-19)
(0.943815 -0.00952618 0)
(0.973827 -0.0043489 0)
(0.96337 -0.00424269 0)
(0.935426 0.00310304 0)
(0.00371138 1.72221 0)
(-0.00642668 1.71908 0)
(-0.000462624 1.67126 0)
(0.557492 0.379768 3.15554e-19)
(0.49833 0.400105 -3.85832e-19)
(0.506775 0.337713 0)
(1.19374 0.0829921 6.06329e-21)
(1.19262 0.0372022 0)
(1.11747 0.0380776 0)
(1.04029 0.0108069 0)
(0.782738 0.093999 0)
(0.799191 0.0603116 -1.42289e-18)
(0.74995 0.0210601 5.44061e-19)
(-0.00420535 2.98116 4.4041e-19)
(-0.0455033 2.86285 6.13847e-20)
(0.00747722 3.04649 -1.31941e-20)
(0.0184164 3.04445 4.88094e-19)
(-0.0138511 2.99629 2.26567e-20)
(-0.012971 2.9517 -9.2405e-23)
(-0.0167535 3.01136 -4.33179e-19)
(0.0138961 3.02471 2.98195e-19)
(0.00733242 3.03281 -4.63868e-19)
(0.997439 0.018367 0)
(1.00325 0.00231959 0)
(0.958392 0.0174446 0)
(0.979748 -0.0170781 0)
(0.983513 -0.00186275 0)
(0.948053 -0.0186989 0)
(0.973584 0.00782366 0)
(0.973466 0.00148959 0)
(0.943791 0.00705925 0)
(0.496185 0.981011 3.50773e-19)
(0.480658 1.05401 0)
(0.580131 0.862597 9.13896e-20)
(0.638044 1.01007 6.16507e-19)
(0.638724 0.880404 -2.80442e-19)
(0.520584 0.671936 5.02043e-19)
(0.491239 1.29369 1.68719e-18)
(0.492218 1.18367 3.40482e-19)
(0.69522 0.247535 4.43583e-19)
(0.677594 0.271852 1.05557e-19)
(0.659323 0.214881 2.14851e-19)
(1.26447 0.498376 1.93223e-19)
(1.28736 0.281768 2.21123e-19)
(-0.00634479 1.66705 1.80247e-19)
(0.0151108 1.62671 0)
(1.06284 0.023351 0)
(1.03826 0.0150616 0)
(1.01361 -0.00262311 0)
(0.0131099 3.07154 0)
(0.00766266 2.94361 8.56885e-19)
(0.0135871 2.95376 0)
(0.00277677 2.85058 -8.50596e-19)
(0.011245 3.08876 2.0344e-19)
(0.0092291 3.07807 0)
(0.487553 1.38534 -1.92279e-19)
(0.945834 2.13538 4.27408e-19)
(0.46669 1.56376 -1.16859e-18)
(0.0185425 2.99211 -2.89814e-19)
(0.0438707 3.02543 0)
(-0.0255562 2.87373 0)
(0.00349399 1.70688 -7.55216e-21)
(-0.000660329 1.73136 -8.51667e-20)
(0.0144354 1.68548 -8.07615e-21)
(0.252356 1.37884 6.86065e-19)
(0.341718 1.29668 -4.7292e-19)
(0.0468063 1.5839 4.36031e-19)
(0.0786591 1.49632 -5.18378e-19)
(0.082432 1.46294 4.76527e-20)
(0.0197068 3.09907 -1.11455e-18)
(0.0252535 3.10657 1.23488e-18)
(-0.0221163 2.98366 5.51858e-19)
(-0.017122 2.97323 -4.90666e-19)
(-0.0367097 2.87961 -5.62083e-19)
(0.0197494 3.09521 -1.50042e-18)
(0.0195286 3.09666 1.53168e-18)
(0.553978 1.20777 0)
(0.596753 1.13314 -1.56748e-18)
(0.590198 1.02225 7.08406e-19)
(0.415488 1.30013 9.36768e-19)
(0.458885 1.19614 -1.46177e-18)
(1.26489 0.170634 -1.62724e-20)
(1.26607 0.312098 0)
(1.26825 0.126044 7.78613e-20)
(-0.00660612 1.70487 -1.50314e-21)
(0.0127168 1.68866 0)
(0.0112226 1.65369 0)
(0.315046 1.34728 -2.4256e-19)
(0.379455 1.32832 -6.04741e-19)
(0.40364 1.23862 1.09287e-18)
(0.998913 -0.0408177 0)
(1.00548 -0.0507468 2.75209e-19)
(0.0029584 1.76865 0)
(-0.000422347 1.77559 0)
(1.00901 0.0100481 6.12804e-21)
(0.990538 0.01192 5.64374e-19)
(0.00952252 1.77879 -1.01972e-20)
(0.00505901 1.77923 0)
(0.0667009 3.22061 9.64745e-21)
(0.317191 3.57374 0)
(1.06286 0.674504 -5.94052e-21)
(1.01005 -0.0112147 -1.64282e-21)
(1.01164 0.00620244 0)
(1.00988 -0.00478663 -2.35271e-21)
(0.0398983 1.84768 0)
(0.0742131 1.68521 0)
(0.00932548 1.79058 0)
(0.0102709 1.75744 8.46578e-20)
(0.0237609 1.75412 4.63867e-20)
(0.992437 0.00175303 6.51825e-22)
(1.04262 -0.00570787 0)
(1.05682 0.0255255 0)
(0.000242845 1.75161 0)
(-0.0161714 1.78667 0)
(-0.00972354 1.77988 0)
(0.239973 1.96086 -2.51773e-19)
(0.983819 -0.0302702 0)
(0.981626 -0.0226494 0)
(1.01791 -0.00908527 3.6326e-19)
(1.0178 -0.0148857 -4.10999e-19)
(1.01473 -0.00887625 0)
(-0.00587147 1.75059 0)
(0.00810613 1.76018 0)
(-5.07705e-05 1.75646 0)
(-0.00269552 1.78371 0)
(0.00135078 1.77473 0)
(-0.00384262 1.77963 0)
(1.02037 0.00679678 0)
(1.01549 -0.00348769 -1.32201e-21)
(0.746265 1.53997 3.19812e-19)
(1.01094 -0.00494444 -3.54627e-19)
(1.02624 0.0149283 4.24737e-19)
(0.998422 0.00100355 0)
(1.01362 -0.000796442 3.44303e-19)
(0.991103 0.0145653 -4.28449e-19)
(0.989205 0.0214067 0)
(-0.0171902 1.78697 0)
(-0.00611642 1.7801 1.47022e-20)
(-0.00951084 1.78359 -8.80475e-21)
(1.17024 0.252034 1.55103e-19)
(1.09841 0.0618196 0)
(0.142438 3.05871 -5.39941e-19)
(0.0838557 2.862 -4.87761e-20)
(0.216354 3.23949 6.62903e-19)
(0.165858 3.28794 7.1401e-20)
(0.172112 3.31111 0)
(0.0345805 3.13988 1.00602e-19)
(0.113366 3.17627 5.27777e-19)
(0.103685 3.22187 -1.99761e-19)
(0.0645004 3.10117 0)
(0.704092 0.346248 0)
(0.638327 0.408758 0)
(1.00902 0.688392 -1.23604e-20)
(1.10065 0.826711 4.38308e-20)
(1.12095 0.52642 0)
(1.17207 0.515237 0)
(1.01902 -0.00625085 -6.47188e-19)
(1.01884 -0.00707126 8.09718e-19)
(1.01825 0.0133852 0)
(1.0154 0.0142406 0)
(1.0069 0.0113484 0)
(1.02022 -0.00380658 0)
(1.01388 -0.00376056 0)
(1.03058 -0.0124203 0)
(1.0225 0.0148277 0)
(1.02648 0.0128238 0)
(0.0381051 1.84539 0)
(0.0251755 1.85045 0)
(0.0429246 1.8664 0)
(0.0489318 1.88204 0)
(0.092821 1.6773 0)
(0.106532 1.66635 -2.95517e-19)
(0.0399605 1.71379 0)
(0.0119546 1.70133 1.60771e-19)
(0.0353528 1.76078 -1.51017e-19)
(0.00564085 1.79013 0)
(-0.0100081 1.78477 0)
(0.0136422 1.79114 0)
(0.00750205 1.80549 0)
(-0.00310395 1.75465 -5.63117e-20)
(0.0139053 1.75922 6.24895e-20)
(0.00800993 1.76325 8.15509e-20)
(0.0163684 1.76595 0)
(0.018413 1.77207 -9.99652e-20)
(0.00470897 1.769 -6.49576e-20)
(0.00249176 1.7437 4.28493e-20)
(0.0117258 1.75279 -8.15802e-20)
(0.00829261 1.75747 -9.5793e-20)
(1.00141 0.0145638 6.15072e-19)
(1.00355 0.015575 -7.47516e-19)
(0.995049 0.00408759 -6.34337e-19)
(0.961966 -0.000663398 8.17691e-19)
(1.03805 -0.000866766 0)
(1.04831 -0.0135171 0)
(1.04669 0.0286386 0)
(1.05376 0.0153291 0)
(1.06323 0.0269699 0)
(1.07433 0.0660823 0)
(1.06788 0.0324663 0)
(1.0852 0.0393497 0)
(0.00191214 1.7707 -2.75383e-21)
(-0.0108588 1.75495 0)
(0.00609856 1.75465 0)
(-0.00508808 1.7849 1.90412e-20)
(-0.0117809 1.78801 -8.12145e-22)
(-0.00284218 1.71872 2.36562e-20)
(-0.00175897 1.73922 -2.4177e-20)
(0.00757461 1.76435 0)
(0.00966042 1.75806 0)
(0.00730379 1.75814 0)
(-0.0107004 1.77824 0)
(-0.0124991 1.77469 0)
(0.381914 1.92577 3.89016e-19)
(0.38154 1.94239 1.97465e-19)
(0.283329 1.5339 -1.71001e-19)
(0.123543 1.54858 4.47114e-19)
(0.290605 1.63232 1.14563e-19)
(1.00312 0.00779636 0)
(0.987594 -0.0107905 0)
(0.994458 0.00342164 0)
(1.03199 -0.0117436 0)
(1.01444 -0.0198427 0)
(1.01118 -0.0206832 0)
(0.983094 0.0253795 0)
(1.01616 0.0447467 0)
(1.00927 0.00745237 6.07496e-19)
(1.01668 0.0171003 -7.66251e-19)
(1.01335 -0.0126396 -6.19587e-19)
(1.01305 -0.0108349 7.59764e-19)
(0.741009 1.62869 0)
(0.657341 1.73645 2.87331e-19)
(0.842027 1.42285 1.11339e-19)
(0.878566 1.35748 -1.47683e-19)
(0.842445 1.91391 -3.28122e-19)
(0.847317 0.117311 3.352e-19)
(1.10833 0.0849095 0)
(1.12832 0.160874 -1.2678e-19)
(1.12997 0.134566 -4.46615e-21)
(0.963916 0.1305 0)
(0.280736 3.07555 -3.82627e-19)
(0.211763 2.88801 -6.47799e-19)
(0.153529 2.24996 5.46107e-19)
(0.169091 0.276361 -1.82261e-19)
(0.236218 3.49884 -6.25905e-19)
(0.184719 3.42718 0)
(0.214844 3.45233 8.16144e-19)
(0.301663 3.23545 5.67719e-19)
(0.368027 3.36734 0)
(0.0171285 3.10504 2.8539e-20)
(0.0313019 3.12088 -3.58272e-19)
(0.0322424 3.11012 5.27414e-19)
(0.053429 3.13843 0)
(0.0571358 3.15451 0)
(0.772091 2.17425 0)
(0.275625 0.556663 4.1663e-20)
(1.01656 1.11659 -4.45815e-20)
(0.929 1.14425 0)
(0.686604 1.04672 -7.11588e-20)
(0.948649 0.901328 1.93772e-20)
(0.527403 0.63097 -3.11528e-19)
(0.707359 0.339293 -2.27922e-20)
(0.703508 0.319005 2.20765e-19)
(0.626849 0.421814 1.47387e-20)
(0.612082 0.421249 -6.04532e-19)
(0.705335 0.35409 0)
(0.696723 0.404956 3.18922e-19)
(0.702619 0.3965 0)
(0.662278 0.382634 0)
(0.669823 0.354314 0)
(0.698203 0.613757 1.76767e-19)
(1.17334 0.274934 -1.23359e-19)
(1.16218 0.40694 0)
(1.16858 0.387141 0)
(0.788098 0.232019 3.57907e-19)
(0.761399 0.478763 -1.88333e-19)
(0.713453 0.450863 3.14396e-19)
(0.855767 0.413877 -3.47563e-19)
(1.01355 0.0183954 4.20101e-19)
(1.0198 -0.00820397 -4.3529e-19)
(1.01532 0.0102233 0)
(1.01685 0.000685401 0)
(1.02341 -0.0103828 -4.05785e-19)
(1.02128 -0.015545 4.00245e-19)
(1.00691 -0.00333925 0)
(1.00057 -0.00287592 0)
(1.02196 -0.00777982 0)
(1.01977 -0.00975497 0)
(1.00606 -0.00460335 0)
(1.0077 0.005774 0)
(0.0238888 1.84453 0)
(0.021837 1.83808 0)
(0.0888418 1.82135 -1.15561e-20)
(0.241994 1.92899 1.27555e-19)
(0.10562 1.91114 2.69463e-19)
(0.142563 1.9473 -4.37402e-19)
(0.179351 1.86528 0)
(0.1387 1.7561 -9.88132e-20)
(0.114376 1.78599 0)
(0.273608 1.6898 -1.65891e-19)
(0.196162 1.6241 5.28036e-19)
(0.194687 1.77223 8.5131e-20)
(0.259981 1.86645 3.97742e-20)
(0.215061 1.86025 -3.20694e-20)
(0.305286 1.7902 -8.68452e-20)
(0.2504 1.7371 0)
(0.257255 1.74884 8.35473e-20)
(0.038534 1.75334 -5.1151e-20)
(0.0422392 1.7495 0)
(0.0563606 1.72961 1.89406e-19)
(0.0541157 1.74178 0)
(0.0190787 1.71224 -1.73149e-19)
(0.0273582 1.73665 0)
(0.0037737 1.76753 -3.37966e-20)
(-0.00289199 1.76943 0)
(0.0111019 1.7649 0)
(0.0147202 1.76215 3.73067e-20)
(0.00407811 1.76067 -3.00766e-21)
(0.0128472 1.76486 1.8159e-19)
(0.00564874 1.76267 1.23812e-21)
(-0.0025883 1.74814 3.25635e-20)
(-0.00781579 1.74435 2.39553e-20)
(-0.00922562 1.7836 0)
(-0.00790098 1.77701 0)
(0.0128939 1.74664 1.17506e-19)
(0.0260695 1.75677 8.40481e-20)
(0.0112208 1.7469 -1.21331e-19)
(0.0155893 1.75128 0)
(0.0112191 1.76878 -6.29143e-20)
(0.0180402 1.76986 3.25763e-20)
(0.021591 1.75731 -1.10545e-20)
(0.00687296 1.74302 -4.06571e-20)
(-0.00525727 1.74809 -1.77701e-20)
(0.0154563 1.76319 6.1162e-20)
(1.01412 -0.00410894 -4.02712e-19)
(1.00312 0.0243711 4.08037e-19)
(1.00759 0.0105235 0)
(0.978798 0.05252 5.71183e-19)
(0.952806 0.0305135 -6.64062e-19)
(0.929208 0.0311069 7.56039e-19)
(0.970166 0.0467748 -7.56651e-20)
(1.03526 0.00710449 0)
(1.04397 -0.0154942 3.76129e-19)
(1.03289 -0.012022 -3.71926e-19)
(1.00375 0.0242432 -2.103e-20)
(1.01606 0.019745 1.82565e-19)
(0.992794 0.0506955 0)
(0.984636 0.0404595 -6.69195e-20)
(1.013 0.0409441 0)
(1.0013 0.0301345 0)
(1.00993 0.00808068 0)
(1.01474 0.00653528 0)
(1.01155 0.0227985 1.36852e-19)
(1.00054 0.00475572 -3.00585e-19)
(0.953617 0.00784276 -1.45675e-19)
(0.971813 0.0142684 -1.60866e-19)
(0.991378 0.0634574 3.02364e-19)
(1.0472 0.0660841 0)
(1.02425 0.0812088 0)
(-0.00645067 1.77063 -3.77362e-20)
(-0.0214467 1.76137 -2.49949e-21)
(-0.0135109 1.75645 0)
(-0.0156867 1.77959 3.58047e-20)
(-0.00155697 1.77653 4.94657e-21)
(-0.0108702 1.78318 -4.61366e-21)
(0.0035001 1.76863 5.23912e-20)
(0.00636731 1.75287 -3.06032e-21)
(-0.00689404 1.74902 1.99179e-20)
(0.00517183 1.78781 -2.75145e-20)
(0.000468232 1.76685 3.25206e-20)
(0.0113168 1.73171 1.79856e-21)
(0.00657898 1.71399 2.66638e-20)
(0.363347 1.80807 -1.47267e-19)
(0.303665 1.79254 1.12819e-19)
(0.660064 1.80613 -2.7675e-19)
(0.531092 1.89978 -1.90458e-19)
(0.54951 1.87676 0)
(0.324252 1.53335 1.76944e-19)
(0.364341 1.52256 2.50093e-19)
(0.169996 1.55338 3.79246e-20)
(0.170443 1.54777 -6.01602e-19)
(0.22702 1.55237 4.94737e-19)
(0.257253 1.55674 0)
(0.185309 1.54974 -3.78391e-19)
(0.135152 1.63352 7.41208e-19)
(0.132322 1.57629 -5.3088e-20)
(0.104734 1.60757 -1.01742e-18)
(0.683998 1.47495 9.74092e-19)
(0.475252 1.50676 0)
(1.02923 -0.00397123 1.22807e-20)
(1.02623 0.0506677 -1.06231e-20)
(1.01392 0.0334251 -1.94319e-19)
(1.00353 0.0159314 2.04259e-19)
(1.01259 0.0133172 0)
(0.557653 1.60089 0)
(0.471318 1.49622 0)
(0.601089 1.23865 0)
(0.411018 1.44574 0)
(0.832636 1.85917 1.80198e-19)
(0.917479 1.67643 0)
(0.62169 1.76475 6.87338e-21)
(0.506397 1.6148 0)
(0.600484 1.58869 -6.80382e-19)
(0.622227 1.63601 4.32947e-19)
(0.86262 0.144639 0)
(0.836555 0.156683 9.25877e-20)
(0.910138 0.101074 5.02837e-19)
(0.862162 0.10076 -1.89972e-19)
(0.860429 0.0651219 -6.16704e-19)
(0.9841 0.197752 -3.97785e-19)
(0.927297 0.26603 -1.29737e-20)
(0.835878 0.262395 4.38431e-19)
(0.918242 0.216722 3.81024e-19)
(0.92657 0.132254 -6.40957e-19)
(0.899611 0.149364 8.15309e-20)
(0.834315 0.237819 -1.74646e-19)
(0.895882 0.1982 0)
(0.955554 0.159812 3.11485e-19)
(0.949773 0.161066 0)
(0.949231 0.205892 0)
(1.06334 0.108536 1.38202e-19)
(0.966433 0.160706 -1.09364e-20)
(0.98445 0.18737 -7.60115e-20)
(1.01908 0.208999 0)
(1.01114 0.0473696 3.06627e-19)
(1.00746 0.0467806 3.83028e-19)
(1.01221 0.052271 -2.97075e-19)
(1.01401 0.0574115 -2.60392e-19)
(0.983887 0.0628899 -4.09891e-19)
(0.960312 0.0726672 0)
(0.951816 0.0435323 0)
(0.923899 0.0705396 -2.69022e-19)
(0.909682 0.0697398 1.08795e-19)
(1.0065 0.0747157 3.50333e-19)
(0.985507 0.0859236 -3.97121e-19)
(0.988904 0.0982694 3.50695e-19)
(0.984864 0.107366 0)
(0.991431 0.0761982 0)
(0.994871 0.0748795 -1.66415e-19)
(1.00638 0.0797392 -2.8359e-19)
(0.309003 1.736 3.04761e-19)
(0.352154 2.10506 -2.95008e-19)
(0.674071 2.27683 -1.36851e-19)
(0.705002 2.85146 -6.48937e-20)
(0.881769 2.16054 4.94451e-19)
(0.885285 2.26184 -3.54283e-19)
(0.896221 1.72662 -1.50471e-20)
(0.703735 2.61661 8.72477e-20)
(0.78106 2.45873 2.08855e-20)
(0.72129 3.04905 -2.34359e-19)
(0.943196 2.64858 3.19179e-19)
(0.958019 2.62901 0)
(0.204709 0.563714 -2.78836e-21)
(0.540928 1.46262 1.02648e-19)
(0.761666 0.542574 2.33486e-19)
(0.740919 0.427679 3.51846e-19)
(0.605704 0.439879 3.3366e-19)
(0.617137 0.43988 -4.27981e-19)
(0.600315 0.480507 3.15815e-19)
(0.608407 0.466156 -1.54968e-19)
(0.564194 0.482398 4.12774e-19)
(0.786569 0.262853 -2.02899e-19)
(0.745708 0.292669 0)
(0.758529 0.265385 1.00231e-20)
(0.654962 0.467621 1.63719e-19)
(0.655169 0.419976 -5.99433e-19)
(0.615851 0.434617 1.93071e-20)
(0.635158 0.438823 0)
(0.459086 0.675667 1.11625e-19)
(0.675584 0.813878 2.13092e-19)
(0.564666 0.805373 -2.41966e-19)
(0.691134 0.820439 -8.36954e-20)
(0.791953 0.884304 -2.13207e-20)
(0.788027 0.887915 2.16649e-20)
(0.796374 0.567937 -3.10864e-19)
(0.815248 0.645836 7.83933e-20)
(0.879992 0.722673 0)
(0.876591 0.696305 -8.52538e-20)
(0.940767 0.291673 1.00752e-19)
(1.07773 0.276866 9.06473e-20)
(1.0049 0.235282 1.60585e-19)
(0.911825 0.374977 -2.1551e-19)
(0.977487 0.394673 0)
(0.997906 0.390499 0)
(0.853188 0.34107 1.30142e-20)
(0.788233 0.296576 0)
(0.808683 0.286938 2.21835e-19)
(0.851781 0.27116 -1.59563e-20)
(0.847024 0.409209 9.39394e-19)
(0.830114 0.447923 2.61646e-19)
(0.81707 0.427191 -2.83455e-19)
(0.749192 0.378727 3.00886e-19)
(0.733735 0.389388 1.82389e-19)
(0.709245 0.40346 -1.7821e-19)
(0.990047 0.0147007 3.44768e-19)
(1.00194 -0.0146656 0)
(1.00768 -0.000495215 2.27438e-19)
(1.00617 0.00458788 -5.0945e-19)
(1.01085 -0.004047 2.42695e-19)
(1.01601 0.0269215 -5.13698e-19)
(1.00728 0.00298282 0)
(0.996847 -0.0137205 -1.08049e-19)
(1.00565 0.00970167 2.72828e-19)
(1.00571 0.00715891 -1.3918e-19)
(0.997891 -0.00823716 1.02514e-19)
(0.00801789 1.81015 0)
(0.0129623 1.77132 0)
(0.0146278 1.83446 0)
(0.0112489 1.82458 0)
(0.0449256 1.76225 8.71216e-20)
(0.0427723 1.78019 -3.28469e-20)
(0.0786708 1.77622 -3.27396e-20)
(0.0579877 1.76551 -8.7548e-21)
(0.033413 1.76367 -7.12351e-20)
(0.0273047 1.76549 5.32267e-20)
(0.0441681 1.76961 -3.71187e-20)
(0.0256025 1.79199 -1.12243e-20)
(0.0251561 1.78616 -7.64917e-22)
(0.013539 1.771 -7.69649e-21)
(0.0506571 1.72137 -1.96107e-19)
(0.0457041 1.70799 0)
(0.0705572 1.70024 1.29932e-19)
(0.0862266 1.77519 7.63968e-20)
(0.214254 1.69772 -8.83894e-20)
(0.171721 1.66537 0)
(0.168625 1.63276 -5.6108e-19)
(0.197102 1.65433 4.00115e-19)
(0.151136 1.71803 -2.39891e-19)
(0.11081 1.69132 1.34178e-19)
(0.102931 1.66805 0)
(0.0122429 1.74547 -1.39797e-19)
(0.00254527 1.75068 -1.69359e-19)
(0.00610783 1.74741 0)
(0.00876377 1.74808 -3.8378e-21)
(0.0176198 1.74429 7.28591e-20)
(0.00706776 1.78438 5.43801e-21)
(0.00612611 1.78773 -7.21184e-20)
(-0.00168174 1.78535 1.10832e-20)
(-0.00197822 1.77073 3.48932e-20)
(0.011338 1.77022 0)
(-0.000912944 1.78604 0)
(0.000835068 1.77947 3.01933e-20)
(0.000683169 1.78574 -8.97955e-21)
(0.00288186 1.78519 0)
(0.00387172 1.7783 2.49397e-20)
(0.00605007 1.77505 -4.78891e-20)
(0.984784 0.0189551 0)
(1.00914 0.0413669 -3.32467e-20)
(1.01301 0.00302657 -2.32801e-19)
(0.997702 0.00739644 0)
(1.02203 0.0343279 0)
(0.996852 -0.00467607 -1.3714e-20)
(0.985235 0.0041799 3.85839e-19)
(1.00022 0.0104252 4.71372e-19)
(1.00605 0.0175151 0)
(1.00232 0.012139 0)
(1.00043 0.00772463 2.44806e-19)
(1.00521 0.0112304 0)
(0.997903 0.0153942 0)
(0.0347708 1.75771 0)
(0.0195717 1.72547 -7.08644e-22)
(0.0202528 1.7655 1.37481e-20)
(0.000280708 1.77973 0)
(0.0154634 1.72264 2.05992e-20)
(0.00651072 1.73686 -9.65169e-21)
(-0.00713494 1.78132 0)
(0.389099 1.66964 0)
(0.331849 1.7515 -2.68035e-19)
(0.322192 1.71313 0)
(0.454666 1.75843 2.20097e-19)
(0.478543 1.80099 0)
(0.444293 1.79282 -5.08244e-20)
(0.69314 1.55432 -2.01896e-20)
(0.734242 1.48109 -1.11373e-18)
(0.785387 1.45838 1.234e-18)
(0.50874 1.51285 2.74044e-19)
(0.506405 1.53431 0)
(0.547131 1.52379 0)
(0.63662 1.49637 0)
(0.577024 1.49445 -9.93458e-19)
(0.367896 1.58143 -5.21389e-19)
(0.465133 1.53676 -1.33196e-19)
(0.495664 1.57288 1.08482e-19)
(0.399496 1.50848 0)
(0.457738 1.51994 0)
(0.41422 1.51447 -2.86562e-19)
(0.443087 1.5611 0)
(0.257841 1.37176 0)
(-0.126719 1.213 -1.69849e-19)
(0.171107 0.838255 -1.71372e-20)
(0.0517344 1.61485 0)
(-0.0631105 1.65907 3.05801e-19)
(0.579669 0.845183 -8.59206e-20)
(0.593023 1.11964 0)
(0.63885 1.04328 1.23385e-19)
(0.378064 1.07186 0)
(0.403299 0.991786 0)
(0.82302 1.90783 -1.82223e-19)
(0.717491 2.12018 -2.53501e-19)
(0.591888 2.01624 4.90965e-19)
(0.642554 1.89284 -1.47333e-19)
(0.857437 1.75459 0)
(0.858608 1.71605 1.85764e-19)
(0.915775 1.61385 -2.03267e-19)
(0.925265 1.50465 -1.24869e-20)
(0.539986 1.7096 0)
(0.406766 1.7315 -2.6697e-19)
(0.429267 1.6691 0)
(0.865883 0.210492 0)
(0.834087 0.158292 0)
(0.798542 0.175731 0)
(0.842062 0.221119 -3.48736e-19)
(0.80054 0.218876 2.13367e-19)
(0.9032 0.0688991 -2.26407e-19)
(0.9266 0.0836173 0)
(0.917875 0.0847207 9.83367e-20)
(0.873288 0.0585239 3.90042e-19)
(0.877344 0.0624709 -2.44339e-19)
(0.778219 3.25635 -6.69951e-19)
(0.751261 3.18197 0)
(0.814909 3.26625 -1.79655e-18)
(0.382831 3.54383 1.69485e-18)
(0.462747 3.27894 7.80019e-19)
(0.0994284 0.89575 -5.10419e-19)
(-0.172384 1.38008 0)
(0.442423 0.360756 3.76127e-22)
(0.476737 0.380883 -6.71697e-20)
(0.712987 0.373733 -8.674e-20)
(0.68078 0.468526 2.35296e-20)
(0.634357 0.474236 1.76577e-19)
(0.644283 0.47434 0)
(0.641277 0.474753 0)
(0.639168 0.425959 0)
(0.95898 0.562501 8.79445e-21)
(0.814602 0.455884 -2.55749e-19)
(0.806296 0.526684 1.95542e-19)
(0.857343 0.47682 -1.96645e-19)
(1.01841 0.439851 0)
(1.05989 0.51873 -3.95446e-20)
(0.757979 0.359408 -4.31167e-19)
(0.767649 0.351551 -5.26071e-19)
(0.733006 0.372536 3.37702e-19)
(0.750538 0.335706 -3.53459e-19)
(0.773068 0.30315 -2.75316e-19)
(0.75752 0.312633 3.37973e-19)
(1.01465 -0.00621461 -2.53688e-19)
(1.01869 -0.00192399 5.05761e-19)
(0.993468 0.0277599 3.29743e-19)
(1.00151 0.0386661 -3.88067e-19)
(0.977131 0.0249783 0)
(0.979743 -0.00128438 -6.20376e-19)
(0.051667 1.77831 2.9151e-20)
(0.0425049 1.75005 0)
(0.0738501 1.77519 2.59338e-19)
(0.0761181 1.77651 -2.36037e-19)
(0.0709055 1.77254 5.97684e-20)
(0.0486308 1.73608 0)
(0.0203945 1.73586 0)
(0.00835238 1.77435 -7.93923e-21)
(0.00146889 1.77597 7.2207e-21)
(0.0114622 1.75502 -2.19287e-21)
(0.0230159 1.74213 -1.57928e-20)
(0.00883931 1.73702 1.37515e-20)
(0.502158 1.65925 -6.57147e-19)
(0.471239 1.64343 7.01119e-19)
(0.4556 1.70796 -1.79545e-19)
(0.461093 1.68099 2.83113e-20)
(0.572826 1.66513 0)
(0.547575 1.76412 8.89718e-20)
(0.559774 1.72484 -8.7833e-20)
(0.484404 1.72564 1.73016e-19)
(0.511194 1.67694 0)
(0.49301 1.68317 0)
(0.361899 1.5529 8.0171e-19)
(0.390904 1.52009 1.18556e-18)
(0.408443 1.5594 -8.11337e-19)
(0.335036 1.53325 -1.49674e-19)
(0.299206 1.54505 2.5322e-19)
(0.23004 1.54016 -6.35254e-19)
(0.827777 1.442 -6.78264e-19)
(0.903697 1.4615 0)
(0.867151 1.44071 -6.84879e-19)
(0.798015 1.61633 0)
(0.80115 1.57184 0)
(0.199758 2.90382 6.00723e-19)
(0.492332 3.13398 5.99676e-19)
(0.452239 3.21006 -7.48171e-19)
(0.522343 1.38899 0)
(0.403686 1.12689 2.41012e-19)
(0.126497 1.22521 3.14568e-19)
(0.182793 2.81207 0)
(0.352392 3.12133 -5.55424e-19)
(0.379287 2.97957 0)
(0.500919 0.502381 -2.49162e-19)
(0.649572 0.650876 4.16613e-19)
(0.68722 0.627472 -4.25792e-19)
(0.601838 0.464657 -3.20156e-20)
(0.661432 0.50287 -1.49583e-19)
(0.418287 2.96656 -4.69614e-19)
(0.435439 2.74396 2.2059e-19)
(0.200596 2.73712 -4.62771e-19)
(0.0892946 2.57985 2.31552e-19)
(0.207582 2.29285 -4.57625e-19)
(0.350593 2.64544 -2.08123e-19)
(0.39834 2.29681 1.28809e-19)
(0.0535342 2.50296 1.06841e-21)
(0.100797 2.39136 2.45219e-19)
)
;

boundaryField
{
    wall-4
    {
        type            noSlip;
    }
    velocity-inlet-5
    {
        type            fixedValue;
        value           uniform (1 0 0);
    }
    velocity-inlet-6
    {
        type            fixedValue;
        value           uniform (0 3 0);
    }
    pressure-outlet-7
    {
        type            zeroGradient;
    }
    wall-8
    {
        type            noSlip;
    }
    frontAndBackPlanes
    {
        type            empty;
    }
}


// ************************************************************************* //
