/*--------------------------------*- C++ -*----------------------------------*\
  =========                 |
  \\      /  F ield         | OpenFOAM: The Open Source CFD Toolbox
   \\    /   O peration     | Website:  https://openfoam.org
    \\  /    A nd           | Version:  9
     \\/     M anipulation  |
\*---------------------------------------------------------------------------*/
FoamFile
{
    format      ascii;
    class       volScalarField;
    location    "10";
    object      p;
}
// * * * * * * * * * * * * * * * * * * * * * * * * * * * * * * * * * * * * * //

dimensions      [0 2 -2 0 0 0 0];

internalField   nonuniform List<scalar> 
918
(
0.215824
0.917445
0.0120356
0.214677
0.00206337
0.884569
-0.830662
0.402207
0.195138
-0.129274
0.0220758
0.185933
0.745632
0.513187
-1.45906
0.0168173
0.355123
-0.636014
0.192812
0.00779415
0.499412
0.202254
0.205745
0.196873
0.249956
0.514935
0.625961
0.000938473
-0.00358954
0.000974634
0.00209663
7.90041e-05
0.00787941
0.768216
0.819254
0.841856
0.16371
0.0844827
-0.677513
-0.768493
-0.704541
-0.850596
0.387273
0.395058
-0.501582
0.400021
0.412209
0.186087
0.194727
0.195585
0.197036
0.19567
0.197663
0.305929
-0.137635
-0.205164
-0.0836337
-0.0620634
0.0886003
0.0226828
0.0176634
0.0246149
0.026572
0.126577
0.183069
0.182498
0.189524
0.199695
0.85697
0.828893
0.85494
0.768884
0.785194
0.723642
0.695973
0.533277
0.554436
0.498639
0.489269
-1.8847
-2.82987
-0.868039
-0.608852
0.00122813
0.0234648
0.032716
0.335656
0.343057
0.348322
0.363522
0.808477
-0.567931
-0.755717
0.192922
0.190348
0.201734
0.202596
0.198561
0.197835
0.0155687
0.0184427
-0.00348004
0.00608586
0.00434001
0.46305
0.458311
0.197422
0.193597
0.20714
0.230681
0.215767
-0.0315318
0.263069
0.29552
0.299808
0.487865
0.489558
0.495533
0.599683
0.561705
0.663588
0.68731
0.00672965
0.00209912
0.0155034
0.0113905
0.0142254
0.16348
0.158654
0.178599
0.167365
0.169524
0.00885356
-0.137722
0.173893
0.15012
-0.600135
-0.677081
-0.660843
-0.72381
-0.826307
0.251938
0.37831
0.384122
-0.508283
-0.419176
-0.580073
-0.356045
-0.433774
0.169602
0.180375
0.174353
0.191282
0.188412
0.188352
0.198705
0.195901
0.197433
0.341018
0.415291
0.262126
0.236363
-0.388027
-0.246158
-0.396561
-0.0267335
-0.0194295
0.0998282
0.114964
0.0828356
0.0750425
-0.00712335
0.00927796
-0.00239148
0.0278826
0.0302009
0.118899
0.109344
0.135626
0.141635
0.17651
0.175508
0.180541
0.177076
0.646822
0.669409
0.67679
0.650492
-3.81087
-6.57753
-0.281679
-0.135013
0.0016109
0.00293336
0.00116877
0.00331914
0.00308397
0.00224989
0.0474029
0.0425733
0.0370128
0.0390625
0.323229
0.327973
0.800355
0.860836
0.725779
0.707482
0.180814
0.184255
0.18838
0.183588
0.0261932
0.0207844
0.0253444
0.411558
0.43552
0.433247
-0.0700255
-0.158188
0.0162679
0.0411683
0.312453
0.296529
0.31704
0.366497
0.404381
0.694363
0.712421
0.71106
0.718785
0.762804
0.779091
0.744456
0.146204
0.154248
0.150795
0.179523
0.179508
0.177568
0.173708
0.176073
0.17462
-0.298361
-0.688969
-0.132403
-0.0317108
0.157411
0.0812235
0.368206
0.521394
0.357377
0.370015
0.376778
-0.288124
-0.362865
0.206986
0.184076
0.0670459
0.0967319
0.0809139
0.618034
0.578867
0.628444
0.602171
0.564156
0.590111
-0.65379
-2.15738
-1.27736
0.237971
0.0371666
0.132013
0.0667464
0.0524739
0.0572495
0.818398
0.847866
0.458155
0.598554
0.56815
0.448993
0.482338
0.533976
0.455523
0.492309
0.531679
0.514732
0.0186907
-0.174327
-0.090805
0.5998
0.776458
-0.179776
-0.227872
-0.290417
0.123682
0.157709
0.141727
0.826942
0.766851
0.834857
0.19362
0.194433
0.00911548
0.0146483
0.197214
0.197297
0.00768083
0.0120475
0.104698
-1.16577
-0.194643
0.185857
0.177374
0.19355
-0.0931721
0.304147
0.0274777
0.0969735
0.0626735
0.18261
0.13434
0.0982422
0.00769064
0.0238965
0.0154472
-0.407523
0.190014
0.188718
0.192657
0.194729
0.194563
0.00863093
0.0094542
0.00532255
0.0133631
0.00897073
0.00856297
0.16216
0.174625
-0.534246
0.193252
0.195011
0.194831
0.188077
0.193842
0.191456
0.019462
0.0132268
0.0167465
-0.0759046
0.0369857
0.37478
0.506309
0.303089
0.0775813
-0.170138
0.269233
0.340834
0.231303
0.410836
0.358304
0.385137
-0.139031
-0.278699
-0.117393
-0.173046
0.184162
0.183879
0.17818
0.170289
0.188474
0.18712
0.191415
0.187883
0.19109
0.192615
-0.0510568
-0.0589056
-0.113056
-0.191942
0.319737
0.415784
0.246619
0.246461
0.147179
0.0280509
0.027855
0.0265703
0.0153038
0.0709378
0.0682907
0.0794902
0.079766
0.0532623
0.0509601
0.0671519
0.0640881
0.069712
0.178209
0.178234
0.182442
0.189104
0.140411
0.145561
0.115388
0.133775
0.121718
0.067948
0.0968904
0.0761112
0.00846735
0.00975716
0.00606463
0.0289674
0.0346469
0.0156636
0.0126919
0.0145144
0.0108826
0.0112772
0.0192336
0.0240679
-0.377882
-0.510253
0.798739
0.652513
0.327173
0.181222
0.186027
0.183263
0.188738
0.190618
0.191667
0.189434
0.187568
0.174805
0.176278
0.173142
0.172825
-0.513899
-0.561728
-0.420098
-0.462518
-0.107591
0.294504
0.0471929
-0.0135326
-0.0204086
0.193033
0.498451
0.358569
0.461806
0.484555
-0.684408
-0.304623
-0.619692
-0.0438719
-0.207278
0.378052
0.434452
0.459681
0.403263
0.347387
-0.389891
0.203954
-0.382063
-0.340902
-0.157195
-0.252652
0.403538
0.342697
0.35156
0.372969
0.390028
0.346605
0.325884
0.322675
0.3635
0.366859
0.162444
-0.042033
-0.091388
-0.124806
0.327616
0.20307
0.26237
0.180081
0.177598
0.181674
0.178667
0.165503
0.172732
0.168856
0.172098
0.174273
0.184552
0.183237
0.179324
0.181738
-0.0364816
-0.0234385
-0.0692182
-0.275057
-0.219957
-0.297212
-0.129179
0.11881
0.105611
0.366981
0.371224
0.0680679
-0.161107
-0.104414
-0.148863
0.146518
0.100665
0.11378
0.161881
0.183203
0.151938
0.213382
0.197028
0.0450346
0.0594493
0.036476
0.0363202
0.102978
0.125182
0.123861
0.0524157
0.0508404
0.0299809
0.0287344
0.0804247
0.0472544
0.0642173
0.070248
0.0249477
0.0289168
0.0326213
0.0462464
0.0452012
0.04801
0.173858
0.174677
0.174556
0.186821
0.198493
0.210354
0.179383
0.158983
0.151435
0.154613
0.133826
0.142207
0.140778
0.147879
0.164559
0.171936
0.170521
0.172017
0.158103
0.160828
0.150479
0.151919
0.135817
0.117332
0.105395
0.0187645
0.0143929
0.0159129
0.0145382
0.0120221
0.0119785
0.0467511
0.0368639
0.0429968
0.0386585
0.0425579
0.0190214
0.0216171
-0.274057
-0.148678
-0.516408
-0.47122
-0.555942
0.725248
0.788803
0.644636
0.499054
0.540728
0.674688
0.753288
0.447326
0.537329
0.53398
0.125087
0.741861
0.186074
0.186498
0.182324
0.180707
0.183094
-0.426312
-0.331433
-0.259776
-0.189618
-7.86868e-05
0.129073
-0.439054
-0.317276
-0.185452
-0.27201
0.287614
0.303956
0.251372
0.277589
0.279721
0.115708
0.177626
0.234066
0.194048
0.232085
0.253765
0.217254
0.245217
0.193885
0.155463
0.15667
0.102135
0.122489
0.101594
0.0804982
0.172268
0.154062
0.162548
0.157692
0.174908
0.203302
0.194648
0.215365
0.235368
0.162964
0.129805
0.138175
0.162445
0.125963
0.13782
0.152346
-0.113098
-0.0895136
-0.0629059
-0.367805
-0.256253
-0.293128
-0.328152
-0.287893
0.0181595
-0.69981
-0.679638
-1.30777
0.165417
0.547753
0.351731
0.313897
0.387189
0.363602
0.363343
0.39976
0.410343
0.318036
0.337033
0.338233
0.293427
0.313612
0.343
0.342885
0.18825
0.0554391
0.0358162
0.0105313
-0.113197
-0.0821914
0.122205
0.0442129
-0.0231803
-0.0180102
0.141613
0.0443154
0.111262
0.13476
0.0711718
0.0335354
0.224545
0.282582
0.274139
0.257018
0.174623
0.182445
0.212185
0.245533
0.269974
0.300344
0.173121
0.179934
0.179764
0.178161
0.175887
0.177008
0.176237
0.177909
0.180237
0.181755
0.180284
0.0155572
0.027137
-0.00523588
0.00137343
0.0125378
-0.0124233
0.0432212
0.00564553
0.0412862
0.0404396
0.00703185
-0.0120057
0.00308568
0.0240673
0.173339
0.202796
0.183483
0.135921
0.242676
0.394708
0.441697
0.381069
0.205083
0.225877
0.282391
0.0929938
0.0967949
0.0871492
0.10649
0.103364
0.0332359
0.0354493
0.0378127
0.0440542
0.0426298
0.0333903
0.0255942
0.0269858
0.0312438
0.0293511
0.0273313
0.161997
0.157308
0.157613
0.15237
0.150379
0.163194
0.165472
0.167429
0.171267
0.172231
0.166085
0.169409
0.171389
0.0332801
0.0273107
0.0294725
0.0271176
0.027895
0.0228319
0.0222024
-0.264423
-0.109779
-0.015035
-0.309758
-0.407006
-0.314704
-0.109314
-0.0694443
-0.267484
0.609842
0.325495
0.149
0.277895
0.446025
-0.0224062
0.281057
0.0492652
0.728879
0.620688
0.764934
0.386615
-0.0865943
0.105061
0.121086
-0.061022
0.0429702
-0.0291731
-0.129939
-0.0970357
-0.0826681
0.0194707
-0.0809897
-0.0572189
-0.378561
-0.516147
-0.0803036
-0.179606
0.10043
0.101949
-0.493193
-0.323494
-0.39182
0.28041
0.298337
0.315454
0.287505
0.311775
0.239927
0.231678
0.250423
0.25946
0.250056
-1.03847
-0.735392
-1.71773
-1.07194
-0.616434
0.212539
0.186218
0.37799
0.288058
0.363384
0.349281
0.318292
0.287393
0.287714
0.322125
0.0378946
0.142308
0.116092
0.127462
0.0374756
-0.0241803
0.2578
0.249565
0.287578
0.310078
0.271186
0.309378
0.172049
0.171332
0.169253
0.167717
0.164684
0.166286
0.103494
0.0778919
0.124732
0.106704
0.0662725
0.0562402
0.0410908
0.0351114
0.0328962
0.0327101
0.0364417
0.0416841
-0.600819
-0.50365
-0.468601
-0.466849
-0.461663
-0.477093
-0.468394
-0.61502
-0.639961
-0.509475
0.285706
0.631761
0.466491
0.658551
0.414827
0.515643
-0.26865
-0.0513274
-0.152612
-0.111231
-0.117545
-0.0474045
-0.548903
-0.472768
0.372483
0.412719
0.259151
0.0704347
-0.192939
-0.0360899
0.209532
0.144451
0.186852
0.252098
0.247918
-0.286229
-0.233416
0.0976251
0.317997
0.0351447
-0.0645024
-0.0275654
0.131617
0.0752011
)
;

boundaryField
{
    wall-4
    {
        type            zeroGradient;
    }
    velocity-inlet-5
    {
        type            zeroGradient;
    }
    velocity-inlet-6
    {
        type            zeroGradient;
    }
    pressure-outlet-7
    {
        type            fixedValue;
        value           uniform 0;
    }
    wall-8
    {
        type            zeroGradient;
    }
    frontAndBackPlanes
    {
        type            empty;
    }
}


// ************************************************************************* //
