/*--------------------------------*- C++ -*----------------------------------*\
  =========                 |
  \\      /  F ield         | OpenFOAM: The Open Source CFD Toolbox
   \\    /   O peration     | Website:  https://openfoam.org
    \\  /    A nd           | Version:  9
     \\/     M anipulation  |
\*---------------------------------------------------------------------------*/
FoamFile
{
    format      ascii;
    class       surfaceScalarField;
    location    "10";
    object      phi;
}
// * * * * * * * * * * * * * * * * * * * * * * * * * * * * * * * * * * * * * //

dimensions      [0 3 -1 0 0 0 0];

internalField   nonuniform List<scalar> 
1300
(
3.75095
5.62643
-6.28821
3.75095
-6.18872
5.62643
-4.46194
4.46194
-1.5319
1.5319
1.87627
1.87469
-5.00012
5.00012
-5.07304
5.07304
-2.90452
2.90452
-5.24594
5.24594
-5.06835
5.06835
4.67398
-4.67398
-5.00901
5.00901
-1.96343
1.96343
-5.06848
5.06848
3.17573
-3.17573
-5.23304
5.23304
-0.594739
0.594739
-0.553207
4.30416
3.19775
3.19775
-2.63385
2.63385
-4.8433
4.8433
6.21789
-6.21789
9.53328
-9.53328
-3.24507
-3.37953
1.36398
-8.11412
-4.82474
-4.82474
-8.44044
8.44044
-2.81401
2.81242
3.0098
-3.0098
-1.76224
1.76224
-4.43812
-0.0238156
-4.43812
4.51048
-0.0485457
4.51048
-1.67417
0.142273
-1.67417
4.09924
-4.09924
1.34329
0.188607
1.34329
3.03771
-3.03771
-1.87709
3.75335
1.87387
-1.87173
6.17589
-1.87922
3.75391
-4.89766
4.89766
-5.09722
0.097097
-5.09722
4.95971
0.0404105
4.95971
-5.29492
5.29492
-5.01339
-0.0596551
-5.01339
5.13061
-0.0575655
5.13061
3.10341
-3.10341
-2.92487
0.0203473
-2.92487
2.84936
0.0551612
2.84936
0.353722
5.27271
-5.98015
8.79257
-5.27271
0.0267679
5.2079
0.038037
5.2079
-5.10622
0.037871
-5.10622
5.00982
0.0585285
5.00982
4.74763
-0.0736534
4.74763
-4.80065
0.126672
-4.80065
-3.35066
-3.27503
-5.08354
0.0745298
-5.08354
-1.99825
0.0348192
-1.99825
1.93384
0.0295914
1.93384
-3.78132
3.78132
-4.89648
-0.172004
-4.89648
3.12251
0.0532223
3.12251
1.86844
1.88251
5.61939
-5.6194
2.44367
-5.2274
-0.00563887
-5.2274
-5.25383
-4.27946
5.25383
-0.020788
-0.909748
0.315009
-0.909748
3.16272
0.0350296
3.16272
2.7578
0.091558
-2.7578
0.123949
3.48649
-3.48649
2.01956
0.614295
2.01956
-5.57395
5.57395
4.94696
0.062861
-4.94696
0.103661
6.15745
0.0604483
6.15745
-6.1994
-0.0184939
-6.1994
3.36462
-6.74415
-3.35718
4.92533
0.0836799
-4.92533
0.100585
3.02865
-0.0188506
3.02865
-2.95637
2.95637
-2.99939
-0.0104116
-2.99939
-2.17152
0.409279
-2.17152
1.36224
0.399995
1.36224
-4.35662
-0.0814973
-4.35662
-4.62729
-0.269192
4.62729
-0.116806
0.880256
-0.880256
-1.80521
0.131039
-1.80521
-4.22365
-0.132974
4.22365
-0.124413
-4.01381
-0.085428
-4.01381
-3.00505
0.00566408
3.00505
0.0326599
3.10317
0.0595498
-3.10317
0.0654532
-1.87073
3.75325
-1.88022
3.75409
-4.70405
-0.193615
-4.70405
5.00854
-0.110876
5.00854
5.2029
-0.134418
-5.2029
0.105682
4.93141
0.0282993
4.93141
-5.27703
-0.0178836
-5.27703
5.27541
0.0195067
5.27541
4.94638
-0.0149668
-4.94638
-0.067005
5.1806
-0.0499972
5.1806
3.14964
-0.0462306
3.14964
-3.07346
-0.0299524
-3.07346
2.96323
-2.96323
2.94333
0.0199037
-2.94333
0.0184618
-11.133
11.1145
-0.0345986
-11.0984
5.1733
5.1733
4.15423
0.593402
4.15423
-5.01358
0.212928
-5.01358
3.35073
-6.70791
3.28323
-6.63389
3.31768
-11.4318
3.36254
-6.63756
5.21469
-5.21469
5.15724
0.0574431
-5.15724
0.0737056
-2.01161
0.0133595
-2.01161
-3.3495
-0.431823
-3.3495
4.11132
-0.330002
4.11132
-3.00151
3.00151
-3.06538
0.0638724
3.06538
0.0571297
5.21365
-0.0330455
-5.21365
-0.0137509
1.1229
0.220389
-1.1229
0.213154
3.68414
-0.19765
3.68414
-3.29811
-0.188373
-3.29811
-2.04084
0.0292241
2.04084
-0.0212804
-5.81859
0.244642
-5.81859
-11.1913
0.0928511
-11.1532
-6.10655
-6.10655
2.33389
11.1265
-3.05025
-0.0232138
3.05025
-0.0215945
2.95727
0.0442324
-2.95727
0.00090021
-2.96717
0.0039336
2.96717
-0.0107924
-2.54029
0.368771
-2.54029
-0.57674
0.57674
-0.953916
0.377176
0.953916
0.408328
1.38989
-0.509633
1.38989
1.89466
0.0391854
-1.89466
0.0894483
-3.93139
-0.0824188
-3.93139
5.08305
-0.074512
5.08305
-3.20286
-0.0952558
3.20286
-0.0532148
-0.0330961
11.1476
-5.14021
0.0339887
5.14021
-11.2081
11.2421
-3.20375
0.66346
3.20375
0.950481
5.30069
0.273263
-5.30069
0.287108
5.25075
0.0246607
-5.25075
0.0360621
-2.91875
-0.430742
-2.91875
-4.41311
-0.29094
4.41311
-0.301785
-11.4749
-0.202443
11.6773
-11.4163
6.02104
0.136411
-6.02104
11.3785
-0.546251
-0.334004
0.546251
0.0304884
1.93722
-0.547329
1.93722
3.84523
-0.161091
-3.84523
-0.0861632
-5.18263
-0.0944012
5.18263
-0.0995829
-2.44916
-0.469598
2.44916
-0.511939
-4.27223
4.30726
1.90366
-3.36405
-3.3801
-7.6435
1.8506
1.90264
4.29427
-7.03709
-4.39471
-6.93651
7.28328
-6.99618
-9.27736
9.20371
7.42219
-7.50762
-5.77046
5.82759
6.38266
-6.35
1.88015
1.87321
10.3273
-10.2302
-10.7966
10.603
10.1731
-10.2327
10.7681
-10.786
-12.4012
12.4259
-5.73385
5.75419
-6.60831
6.57836
-6.7718
6.71858
-3.33744
-3.29646
9.03955
-8.96502
11.7632
-11.7689
-9.80077
9.62876
3.37455
0.932714
3.4341
-1.88705
3.76719
-1.86686
3.77052
3.35111
-6.68855
3.3568
-6.7369
6.05671
5.70652
-6.03592
-1.60759
-5.87139
5.85254
-5.85548
5.84469
8.54954
-8.57335
-1.88636
3.75957
-1.86772
3.77037
-3.41395
-2.35651
3.36072
0.933543
5.56881
3.47074
-5.65249
-1.28401
-7.59196
7.43087
-7.86998
7.68161
-0.472893
5.83845
-5.36556
4.3704
-1.5591
7.39755
5.72418
5.93711
5.8709
-5.59764
1.12528
-6.49084
-6.38717
-2.68292
2.81396
2.64173
-2.45312
5.84934
1.57285
5.72493
-5.42908
-2.07854
-5.51149
3.7971
2.03049
3.86097
4.01873
2.36393
4.02439
3.03928
-3.02965
-0.00963238
-3.07732
6.1166
0.72992
-5.43383
-4.50029
6.79291
3.53441
6.83332
-6.78356
-3.44666
-6.67788
-6.5675
-4.22907
-6.85844
6.79975
3.8032
6.68887
-8.02225
7.92267
6.80009
3.37301
6.74252
-6.71941
-3.51334
-6.78642
10.4931
-2.69338
-7.79974
-6.95674
-5.44447
6.93724
3.83088
7.54593
4.87995
7.58199
3.56698
6.92614
-7.39786
1.95339
-3.83434
-1.8995
-3.81588
3.71548
2.03872
3.77064
-4.13411
-2.4742
-4.15733
-4.19693
-2.57487
4.24316
2.3352
-4.3142
-3.55578
4.40946
2.30912
2.98906
-7.38377
3.64851
-6.94497
-6.30365
-2.66137
-6.22995
4.09319
2.62876
-6.72196
-2.59535
10.9398
-5.23331
9.33225
-7.32339
-4.44548
-7.33714
-6.40585
-3.39492
-6.67504
-6.28776
5.85702
-6.24833
5.91833
12.6083
-4.96362
-7.64465
-3.93939
-2.41061
3.87394
-0.439842
-3.73332
3.72368
0.0338756
3.8044
4.73711
4.29727
-3.86391
-1.99157
-3.86301
3.85191
1.99278
3.85584
6.11228
2.43726
6.06374
-6.1382
-2.43515
-6.2197
9.03982
-8.63054
2.93934
-2.91012
5.12672
2.55489
-4.92908
-2.66289
5.96468
-3.00128
-2.9634
-12.2769
10.6496
1.62735
-4.87936
-0.508955
0.0857839
-5.51587
-3.76149
5.3892
0.54791
11.1975
7.43599
-5.51603
5.76067
6.16128
6.22414
-0.163037
5.77662
-5.11316
5.2487
-2.2446
-3.00409
5.17646
-5.30943
-1.04324
-5.26174
4.2185
0.4155
1.90349
-1.58848
-2.16809
-0.514829
-2.07865
1.60913
1.0326
1.82952
1.00723
1.80673
-2.87222
0.504118
2.36811
-1.865
-1.94901
-3.62471
-0.860104
4.48481
5.4065
2.02437
-5.32033
-0.191161
2.8054
-2.77581
-0.886651
-2.73805
1.90241
-2.78906
-3.36413
-1.85919
5.22332
-3.35693
-0.506083
3.31269
0.54828
-3.7461
-2.12529
3.75651
0.267878
-3.08764
6.15677
-3.06914
-5.07921
2.52861
3.58799
4.55909
-4.86523
2.47801
2.38722
-1.27724
5.89178
0.941539
5.92008
-8.91349
5.46683
7.13456
2.49421
-7.00014
0.322264
-8.59123
9.87577
-8.17686
-1.69891
5.43261
4.44316
5.7942
6.81407
-4.36858
10.1628
-0.197828
-7.97903
8.78906
-6.29485
4.51475
-10.8096
-11.3288
3.34979
-7.14473
8.64448
-1.49975
-2.40811
-5.61414
9.55284
-1.00022
-8.55263
5.68865
-5.40445
-5.30661
10.7111
-8.09783
8.81995
-2.64918
-6.17077
-6.71735
-4.06865
6.81176
1.11091
-9.92474
11.8781
-2.9986
5.92814
0.814376
5.87815
3.93236
-6.04535
2.11299
4.16547
-6.81464
2.6263
-8.67166
-4.86234
9.51325
-4.65091
-7.52371
-6.73441
-0.789293
2.03565
9.84247
-6.9156
5.32493
1.59068
3.32013
0.535712
-3.34003
-0.475848
0.342902
4.43807
-4.78098
4.11354
4.2051
3.31229
1.12578
3.81896
2.03358
-3.79737
-0.359958
-4.02117
1.4463
-1.68597
-3.4497
4.896
-3.90434
0.454644
-2.63141
-3.44542
6.07683
-4.53091
3.05681
3.09996
5.04959
-4.7931
1.34768
-2.37149
-2.42162
2.55666
-4.24263
1.82707
3.06893
4.13619
0.580414
4.81867
4.69457
-7.44744
0.50247
8.16531
-6.8813
1.68745
5.89454
-7.01237
0.277962
-5.95199
1.11513
-6.34845
-5.60683
4.01239
-7.40731
-6.79721
5.6141
0.44964
-5.49729
-1.17775
-4.11069
-2.17707
-4.58029
-2.04319
-4.20514
-6.41176
-1.22006
-5.19171
4.63697
-4.60907
-2.24937
4.91086
1.00747
-7.41141
7.07741
-6.33943
5.7921
0.0490933
3.67459
4.34636
1.93575
-2.39735
4.33311
-3.80532
6.24258
-8.15962
4.3543
4.1458
-6.58095
-4.01383
4.99589
4.04393
5.39588
9.62569
-11.2219
1.59622
-12.0994
11.8781
0.221236
-17.8896
5.79025
-8.26391
2.68026
0.259078
2.69362
0.640152
2.32296
-2.96311
-2.26997
-2.29125
-2.17755
-3.24629
5.42385
1.09611
-3.20606
2.10994
-3.41993
4.51605
0.034478
-3.24054
5.11619
-2.79323
5.37527
-3.38545
1.98981
3.17145
5.41809
-2.24665
4.17499
-1.62011
1.73419
-3.98084
-1.51211
-2.94701
4.98573
-3.12982
3.58446
-0.204754
3.78922
-3.9437
0.942422
-0.631409
3.57369
3.69764
4.152
-3.02622
2.79223
-4.41234
-1.1886
-3.83192
-0.762996
0.763836
-4.66259
3.89876
7.11015
-6.34632
-5.17427
9.53128
-4.35701
7.65942
-5.35972
-2.2997
-4.2382
-4.39234
3.86943
1.90719
9.56661
0.208765
-5.56849
-4.90439
-3.95391
3.2211
2.0276
-2.1684
3.79575
2.08262
-0.17913
0.626645
1.20287
1.87295
-1.24631
0.172452
1.7005
-1.41603
2.11082
0.694584
-2.15
0.071357
-1.38491
3.28732
0.983199
-2.0158
0.769491
1.09803
-3.34264
4.76078
-2.47246
-2.28832
5.85881
1.07302
-3.54548
4.18872
-3.77322
2.33217
-3.19227
-1.21331
-4.98653
-3.41368
-2.40511
4.51505
-3.01874
5.04311
1.15093
-4.85195
6.00288
-3.37862
1.51943
-3.07987
3.77445
-1.13742
-1.94245
2.61705
2.60627
-2.81341
0.075351
-0.196356
2.17514
-2.3715
-0.613919
-2.47891
-4.5827
4.85058
-2.11434
4.59235
2.21877
-1.9093
6.50166
1.85245
-3.76175
-3.22676
-3.73284
-1.37453
3.18456
-0.981642
-5.80477
-7.15241
5.81974
0.100336
-8.97931
10.2989
-1.31957
-5.4449
-0.0219293
5.45454
-7.55099
0.73635
-4.92469
5.37419
6.31573
6.41606
-8.65543
0.1028
-4.85222
1.49047
-6.34269
5.93363
-3.50207
6.85186
-7.66818
5.41882
-6.66071
5.15295
-1.18975
5.62047
-3.50748
2.17926
-6.24791
-5.137
6.98372
-3.61071
7.7981
-4.10174
11.8998
-7.10034
6.93693
4.96291
-1.39527
-5.94188
-6.84016
5.44489
0.0967765
5.97492
4.87671
-2.84313
4.51675
2.20007
-4.57156
-2.04255
-6.41464
1.84308
-3.31467
-1.86409
3.70717
3.18551
3.72122
1.28555
-3.24537
6.66377
-7.45306
-2.01286
-3.59396
6.75426
-1.30937
4.03966
-7.63362
-2.30879
7.76508
-3.58316
-4.18192
-2.80146
-3.99575
3.77827
-7.77402
3.62905
-4.8068
2.14147
-10.4054
-5.26994
-5.23945
-1.82628
-4.51315
-7.84488
6.0186
-2.05463
5.02278
-9.36069
5.77753
-2.51743
8.53603
-3.9001
-0.680182
4.41204
1.38005
9.91608
0.795787
-4.80962
-1.90784
4.2632
-2.35535
1.31326
-3.86681
0.396392
2.36962
3.48919
-6.58812
0.00717192
-4.80244
-4.04476
8.08869
5.48651
12.5967
1.37476
9.36424
-1.27555
10.739
4.12034
4.52866
-4.35627
5.95249
-0.457514
3.89679
-0.82648
2.81629
1.86714
1.90196
0.873848
2.23607
1.46157
3.17849
0.215381
-2.07587
4.62246
-8.57638
-0.946024
-7.98297
1.22073
5.80508
-4.58435
3.28666
-1.25906
0.931305
0.332478
-1.76042
1.42794
-2.67162
-1.93955
-0.239047
-1.47214
2.24163
1.81518
-2.00259
-0.669031
0.261085
-3.67477
2.93118
-2.85583
-0.249568
5.75331
-2.5752
0.203695
-1.05576
-2.27522
-2.79005
2.71869
6.17483
0.326827
3.10569
5.1774
3.05211
0.208983
4.62969
-6.12944
-4.04197
-6.02664
-0.0930081
5.36153
2.04967
7.7928
7.01258
5.7032
-1.93042
-9.38348
7.77818
-1.8257
7.99942
-3.8175
-3.95651
3.68207
2.56051
-4.13171
-0.675089
-4.6316
-6.4573
-1.77823
7.55576
-8.13785
7.45767
5.2806
-0.0888904
-4.62111
-0.618345
4.24393
0.284731
11.0237
-1.1851
-6.81626
8.00137
-4.61998
3.67396
1.04233
2.75342
2.47027
1.21121
-5.60505
-10.1894
-1.80889
-1.53375
-4.09721
0.387601
-2.20278
6.22448
-2.55052
3.92478
5.45084
6.38215
-1.99095
-4.35537
6.34796
-2.42318
3.95897
)
;

boundaryField
{
    wall-4
    {
        type            calculated;
        value           uniform 0;
    }
    velocity-inlet-5
    {
        type            calculated;
        value           uniform -3.75095;
    }
    velocity-inlet-6
    {
        type            calculated;
        value           uniform -5.62643;
    }
    pressure-outlet-7
    {
        type            calculated;
        value           nonuniform List<scalar> 8(6.28821 6.18872 6.6246 6.75015 6.62569 6.7218 6.63396 6.68022);
    }
    wall-8
    {
        type            calculated;
        value           uniform 0;
    }
    frontAndBackPlanes
    {
        type            empty;
        value           nonuniform List<scalar> 0();
    }
}


// ************************************************************************* //
