/*--------------------------------*- C++ -*----------------------------------*\
  =========                 |
  \\      /  F ield         | OpenFOAM: The Open Source CFD Toolbox
   \\    /   O peration     | Website:  https://openfoam.org
    \\  /    A nd           | Version:  9
     \\/     M anipulation  |
\*---------------------------------------------------------------------------*/
FoamFile
{
    format      ascii;
    class       volVectorField;
    location    "10";
    object      U;
}
// * * * * * * * * * * * * * * * * * * * * * * * * * * * * * * * * * * * * * //

dimensions      [0 1 -1 0 0 0 0];

internalField   nonuniform List<vector> 
918
(
(0.985089 -0.00108402 0)
(0.00495162 2.96629 0)
(-0.00276136 1.67591 0)
(0.979502 0.00248968 0)
(-0.00157927 1.6498 -1.90667e-21)
(-0.00700395 2.94876 -1.87857e-18)
(0.871339 1.15472 7.36074e-19)
(0.518828 0.262579 -8.77772e-21)
(0.999828 -0.000282184 0)
(0.0506496 1.47237 0)
(-0.00930015 1.50318 0)
(0.865248 -0.00227402 0)
(0.0113262 2.92992 0)
(0.00129222 2.7951 0)
(-0.0203526 3.16457 1.08967e-18)
(-3.73663e-05 1.57166 -1.87278e-20)
(0.622524 0.118002 5.44651e-19)
(0.235762 1.60927 5.1397e-19)
(0.96646 0.0104477 0)
(0.000967241 1.56123 0)
(0.204569 0.304799 -4.90417e-19)
(1.00163 -0.0049368 0)
(0.999955 -0.00987068 0)
(0.975568 -0.00570705 0)
(0.781946 -0.0283251 0)
(0.022309 2.62432 0)
(-0.0153898 2.91015 6.50264e-19)
(-0.00833568 1.69448 0)
(-0.00880327 1.7664 0)
(-0.00892977 1.69328 0)
(0.00372572 1.79957 0)
(0.0019203 1.66371 1.50992e-21)
(0.00194162 1.58234 0)
(-0.0206241 2.98757 -6.57415e-23)
(-0.0167299 3.00532 1.46034e-18)
(0.00212253 3.00022 0)
(0.902423 -0.000450439 0)
(0.370525 0.953165 2.16484e-20)
(0.836234 1.20129 -1.04811e-18)
(0.980619 1.03658 9.73977e-19)
(0.680733 1.31277 -1.63413e-19)
(0.726315 1.2655 9.30652e-19)
(0.561238 0.320816 8.56436e-21)
(0.555573 0.224085 0)
(1.19873 0.571297 0)
(0.508436 0.336977 3.97096e-20)
(0.477351 0.25007 -4.12056e-20)
(0.910889 -0.00479517 0)
(1.00007 0.000217849 0)
(0.999965 0.000184181 0)
(1.00474 -0.00769993 0)
(1.00066 -0.000802602 0)
(1.0001 -0.000183525 0)
(0.0255324 1.57132 -5.83367e-19)
(0.0292264 1.60688 0)
(0.0863481 1.50189 0)
(0.0123885 1.61234 0)
(0.0300415 1.44806 0)
(-0.00579755 1.60603 0)
(-0.0136394 1.60472 0)
(-0.00875967 1.48481 0)
(-0.0153638 1.63203 0)
(-0.00989852 1.52085 0)
(0.928735 0.00323446 0)
(0.923265 0.00337534 0)
(0.871093 -0.00244895 0)
(0.918787 0.0102157 0)
(0.844651 0.00755811 0)
(0.0147536 3.00038 6.87829e-19)
(0.0116082 3.00795 0)
(0.00615262 3.00296 0)
(0.0136626 2.99735 7.67733e-24)
(0.00802906 2.95831 -1.02229e-18)
(0.0146226 2.98169 0)
(0.0109191 2.90335 0)
(0.0249289 2.93017 1.38168e-24)
(0.00380727 2.82551 0)
(0.0322725 2.91543 0)
(-0.00650023 2.74393 0)
(0.298871 3.54948 0)
(-0.132303 3.62967 0)
(0.13235 3.25374 -1.01408e-18)
(-0.0144357 2.99378 0)
(0.0118551 1.76642 0)
(-0.00188091 1.66191 1.84765e-20)
(-0.000636329 1.5741 -3.17556e-20)
(0.683086 0.16453 -1.87001e-19)
(0.647114 0.0745756 -1.8071e-19)
(0.654655 0.195404 -5.62448e-19)
(0.614786 0.136232 -3.77579e-19)
(0.242225 1.2796 0)
(0.217759 1.6243 -5.45933e-19)
(0.390424 1.51869 9.15908e-19)
(0.986688 0.012866 0)
(0.941351 0.0115359 0)
(1.00045 0.000563979 0)
(1.0025 0.00953015 0)
(1.00226 0.00959897 -9.96147e-19)
(0.991929 0.00902478 7.60747e-19)
(-0.000993739 1.65297 0)
(0.00240269 1.56487 0)
(-0.00973316 1.70626 0)
(-0.0061831 1.66733 0)
(0.000478956 1.56872 0)
(0.293806 0.318539 1.49103e-19)
(0.3384 0.27167 0)
(0.993407 -0.00803749 0)
(0.957148 -0.00512444 0)
(0.888858 0.0246538 0)
(0.857186 0.0204269 0)
(0.819204 -0.00432714 0)
(1.04149 0.00202081 0)
(0.816721 0.0231959 0)
(0.724561 -0.0131929 7.30468e-19)
(-0.0342567 2.868 3.22498e-19)
(0.0438723 2.90783 0)
(0.0579093 2.88241 0)
(-0.00454517 2.69461 0)
(-0.0127833 2.98512 5.97614e-19)
(-0.0182406 2.89556 0)
(-0.0154521 2.98803 -1.89111e-18)
(-0.013473 2.92493 6.53719e-19)
(-0.00524251 1.80044 0)
(-0.000609428 1.79202 0)
(0.000318724 1.66923 -4.79689e-22)
(0.000557073 1.66119 0)
(0.000292918 1.57119 0)
(0.953609 0.00366323 0)
(0.903907 0.00486088 0)
(0.880204 -0.00786808 0)
(0.951266 -0.00225953 0)
(0.896543 -0.00324771 0)
(0.50287 1.13305 -3.5499e-20)
(0.554089 1.18377 0)
(0.289565 0.873176 1.15072e-20)
(0.251274 0.73071 0)
(0.946204 1.07811 -2.81834e-19)
(1.07101 0.884602 5.85241e-19)
(0.356923 1.52886 0)
(0.516706 1.41993 0)
(0.565797 1.37652 0)
(0.11658 0.0590077 -1.42988e-19)
(0.592712 0.292414 0)
(0.584048 0.21015 1.09449e-19)
(1.04368 0.934968 0)
(1.11712 0.783532 0)
(1.14169 0.732631 -5.08814e-19)
(1.18138 0.626376 0)
(1.23453 0.417456 6.3105e-20)
(0.950329 0.000438308 0)
(0.950908 -0.00395155 0)
(0.900725 -0.000344521 0)
(0.985248 -0.00897508 0)
(0.96733 -0.00685813 0)
(0.935304 -0.00509424 0)
(1.00004 0.00218749 0)
(1.00094 0.00174804 0)
(0.999814 0.000836269 0)
(0.0176491 1.64331 3.17227e-19)
(0.0592249 1.54451 0)
(0.000238419 1.66995 5.15719e-19)
(0.0099927 1.57094 -4.4069e-19)
(0.0699903 1.63748 -4.28765e-19)
(0.0338706 1.64065 0)
(0.12502 1.56994 0)
(0.00644635 1.59693 0)
(0.0189048 1.43954 0)
(-0.00697847 1.68863 -1.33566e-21)
(0.00369131 1.61553 0)
(-0.0093984 1.68824 -6.85168e-20)
(-0.00503335 1.6008 1.29741e-19)
(-0.0050281 1.5933 0)
(-0.0162756 1.59746 0)
(-0.00204188 1.45542 0)
(-0.0131239 1.64702 0)
(-0.00678046 1.53634 0)
(0.988489 0.0124558 0)
(0.946185 0.00320036 0)
(0.973824 0.00651986 0)
(0.922328 0.00283264 0)
(0.880082 -0.00183343 0)
(0.941692 0.00598934 0)
(0.933914 0.0038345 0)
(0.875259 0.00393939 0)
(0.00577027 3.0649 -6.05734e-21)
(0.0159634 3.05796 0)
(0.014601 2.96892 0)
(0.00840671 2.87624 0)
(0.913071 3.95415 0)
(1.22597 3.283 9.94115e-19)
(0.0692382 3.08751 0)
(-0.0266485 2.9141 0)
(0.00227978 1.78716 0)
(0.0107065 1.76632 0)
(0.00851894 1.76861 0)
(0.00390546 1.78576 4.80299e-21)
(0.014125 1.76993 0)
(0.00794542 1.7809 0)
(-0.000948541 1.58206 4.32681e-21)
(-0.0029216 1.67882 3.90933e-20)
(-0.00135191 1.66932 3.24366e-20)
(-0.00255884 1.57525 0)
(0.703397 0.126437 2.74609e-19)
(0.667064 0.0525995 -2.65859e-19)
(0.210485 1.36983 0)
(0.316219 1.12799 -2.71913e-19)
(0.13895 1.45919 -7.87584e-19)
(0.173159 1.35916 7.86842e-19)
(0.891517 0.00847931 0)
(0.961938 0.0133989 0)
(0.974726 0.0148151 0)
(0.918304 0.0134257 0)
(-0.00747032 1.65523 0)
(-0.00178487 1.65773 0)
(0.000811418 1.55333 0)
(0.464471 0.352437 3.62502e-19)
(0.402056 0.336904 -4.4832e-19)
(0.403995 0.251569 0)
(1.16191 0.084256 -5.0826e-21)
(1.14848 0.0372585 0)
(1.07284 0.0382083 0)
(0.988522 0.00407297 0)
(0.732697 0.103477 0)
(0.768322 0.0577365 -1.17031e-18)
(0.699649 0.0306472 4.48355e-19)
(0.0102952 2.98271 4.17428e-19)
(-0.032284 2.86837 4.85446e-20)
(0.00365363 3.05059 -1.30858e-20)
(0.0198148 3.04338 4.69469e-19)
(-0.0150214 2.99667 2.17285e-20)
(-0.0130759 2.94947 -8.7757e-23)
(-0.0174048 3.012 -4.11119e-19)
(0.0150053 3.02364 2.98599e-19)
(0.00746821 3.03724 -4.67191e-19)
(0.970589 0.00502849 0)
(0.964615 0.00627816 0)
(0.91158 0.00512191 0)
(0.949166 0.0102503 0)
(0.941289 0.000132168 0)
(0.878574 0.0028089 0)
(0.945118 -0.00157971 0)
(0.938075 -0.00399286 0)
(0.884724 -0.0086867 0)
(0.717129 1.40141 2.70603e-19)
(0.747968 1.50777 0)
(0.124568 0.0882883 -2.16009e-20)
(0.073945 0.451549 -1.16559e-19)
(0.142141 0.625527 -7.41381e-20)
(0.195353 0.426055 1.50768e-19)
(0.427445 0.670502 9.10589e-19)
(0.20575 0.285453 3.07331e-19)
(0.646018 0.229345 4.09598e-19)
(0.622077 0.266916 9.98158e-20)
(0.602487 0.17603 2.10266e-19)
(1.22431 0.467407 3.06152e-19)
(1.24664 0.261727 3.24026e-19)
(-0.00586964 1.66975 2.05979e-19)
(0.00998503 1.57736 0)
(1.02507 0.0215816 0)
(1.00206 0.0105301 0)
(0.960563 -0.00306163 0)
(0.0108433 3.07497 0)
(0.0200424 2.94394 8.08557e-19)
(0.0165187 2.95647 0)
(0.00600549 2.85082 -8.02274e-19)
(0.00601178 3.09095 1.91729e-19)
(0.00744117 3.08208 0)
(0.782302 1.80586 -2.26868e-19)
(1.23238 2.47932 6.18799e-19)
(0.761569 1.94465 -1.44318e-18)
(0.0215659 2.98739 -2.99194e-19)
(0.0364489 3.01198 0)
(-0.0305861 2.88532 0)
(-0.0050764 1.67422 -7.4435e-21)
(-0.00257234 1.67936 -9.15052e-20)
(-0.000176903 1.58993 -6.15385e-21)
(0.273551 1.24741 8.34922e-19)
(0.340237 0.984852 -5.64323e-19)
(0.0410495 1.60093 5.29595e-19)
(0.07869 1.54004 -6.48067e-19)
(0.103968 1.45599 7.64124e-20)
(0.00271487 3.11882 -1.12805e-18)
(0.0142177 3.11867 1.21734e-18)
(-0.00819138 2.98142 5.16191e-19)
(-0.00297865 2.97825 -4.53728e-19)
(-0.0212656 2.88256 -5.25724e-19)
(0.00869794 3.10018 -1.40592e-18)
(0.00250114 3.1049 1.37922e-18)
(0.391059 0.505766 0)
(0.23266 0.427315 4.11852e-19)
(0.064145 -0.0412014 -1.36743e-19)
(0.443086 0.831149 9.18844e-19)
(0.322978 0.538965 -1.38358e-18)
(1.24206 0.172714 -6.0734e-20)
(1.24467 0.313731 0)
(1.23099 0.122729 1.28677e-19)
(0.00548911 1.68593 -1.70834e-21)
(0.00230985 1.66968 0)
(0.0106525 1.59444 0)
(0.303417 1.11127 -2.92488e-19)
(0.338724 0.988577 -6.47866e-19)
(0.34359 0.806324 1.16612e-18)
(1.00546 -0.00931523 0)
(1.00652 -0.00644616 1.84557e-19)
(-0.00346342 1.79808 0)
(-0.00737077 1.80248 0)
(1.00253 0.00344474 1.5308e-21)
(1.00169 0.0095753 3.73454e-19)
(0.00381301 1.78673 -6.15539e-21)
(0.00239374 1.78689 0)
(0.0420241 3.1862 9.13668e-20)
(0.384453 3.49636 0)
(1.10423 0.643696 7.2493e-20)
(1.01349 0.0136067 -2.09342e-21)
(1.00727 -0.0168866 0)
(1.0019 5.10248e-05 3.17118e-22)
(0.016023 1.78882 0)
(0.0372156 1.79149 0)
(-0.0211535 1.78859 0)
(0.00456545 1.79326 9.10926e-20)
(-0.00227314 1.79704 4.55996e-20)
(0.999763 0.0102068 2.20836e-21)
(1.04453 0.0126943 0)
(1.07379 0.0238862 0)
(0.00598883 1.77308 0)
(0.00170853 1.7883 0)
(-0.003367 1.79578 0)
(0.0507793 1.68565 -3.48283e-19)
(1.01212 -0.0119666 0)
(1.0083 -0.0217076 0)
(1.00477 0.000566585 2.30681e-19)
(1.00401 -0.00468212 -2.75027e-19)
(1.00178 -0.00315201 0)
(-0.00311395 1.78171 0)
(-0.00104188 1.79483 0)
(-0.00057817 1.78962 0)
(-0.00368628 1.79679 0)
(-0.00388073 1.79323 0)
(-0.0046578 1.79586 0)
(1.02535 0.00888994 0)
(1.02085 -0.000551691 -8.79762e-22)
(0.747073 1.19314 5.32673e-19)
(1.00229 0.00150697 -2.31867e-19)
(1.00382 0.00569662 2.74504e-19)
(1.00125 0.00225315 0)
(1.01138 0.0110923 2.23763e-19)
(1.00706 0.0125965 -2.78182e-19)
(1.00149 0.0143058 0)
(0.00317178 1.78903 0)
(0.00316365 1.78699 1.70387e-20)
(0.00394764 1.78649 -1.29814e-20)
(1.16878 0.254646 -8.64054e-20)
(1.10743 0.0830987 0)
(0.0673229 3.08108 -5.13411e-19)
(0.0698853 2.851 -4.23763e-20)
(0.148675 3.20787 7.35023e-19)
(0.139335 3.23612 9.12008e-21)
(0.143018 3.25005 0)
(0.0239729 3.13982 1.09241e-19)
(0.0828352 3.16653 5.02592e-19)
(0.0767046 3.19432 -2.1208e-19)
(0.0310739 3.12672 0)
(0.701241 0.347171 0)
(0.604641 0.402111 0)
(1.07758 0.674994 -2.71095e-19)
(1.06558 0.8052 4.15225e-19)
(1.12377 0.546487 0)
(1.16779 0.508283 0)
(1.01386 0.0146941 -4.32418e-19)
(1.01039 0.0197966 5.39141e-19)
(1.00695 -0.0113564 0)
(1.00793 -0.00382649 0)
(1.00677 0.000966495 0)
(1.01319 0.0049093 0)
(1.00495 0.00150546 0)
(1.01614 0.00919058 0)
(1.00814 0.00608202 0)
(1.00569 0.00307075 0)
(0.0111103 1.78948 0)
(0.00728196 1.79674 0)
(0.0167371 1.78921 0)
(0.0145106 1.77339 0)
(0.0381124 1.79565 0)
(0.064614 1.79995 -3.36223e-19)
(0.0143176 1.80363 0)
(0.00745053 1.79338 1.67421e-19)
(0.0198997 1.79779 -1.66108e-19)
(-0.0198167 1.79169 0)
(-0.0145113 1.79302 0)
(-0.0215426 1.78851 0)
(-0.0188377 1.79016 0)
(-0.00409182 1.79485 -5.48786e-20)
(-0.00589724 1.7973 6.57478e-20)
(-0.0052697 1.79825 8.03827e-20)
(-0.00629211 1.79681 0)
(-0.00333467 1.79947 -1.03096e-19)
(-0.00370883 1.79706 -5.93457e-20)
(-0.00313198 1.79581 4.43656e-20)
(-0.00556801 1.79515 -8.5486e-20)
(-0.00547023 1.79699 -9.90077e-20)
(1.00885 0.0161319 4.107e-19)
(1.0085 0.00551497 -5.17457e-19)
(1.0002 0.0221972 -4.24997e-19)
(0.986647 0.0207117 5.4768e-19)
(1.03817 0.0171314 0)
(1.04045 0.00812708 0)
(1.05916 0.0324536 0)
(1.04437 0.0122663 0)
(1.05973 0.0118869 0)
(1.09471 0.0655321 0)
(1.07337 0.0416412 0)
(1.09624 0.0315119 0)
(0.008373 1.77484 -1.73042e-21)
(0.00408008 1.76792 0)
(0.00740459 1.76997 0)
(-0.00441821 1.79163 1.90368e-20)
(-0.00520389 1.78995 -8.89003e-22)
(-0.0082602 1.77613 1.63694e-20)
(-0.00400237 1.78482 -1.64861e-20)
(-0.00584884 1.79421 0)
(-0.00401879 1.79479 0)
(-0.00334889 1.79375 0)
(-0.00470733 1.79522 0)
(-0.00513281 1.79537 0)
(0.117849 1.59321 6.43193e-19)
(0.222749 1.5044 2.90646e-19)
(0.430941 1.71758 -1.99379e-19)
(0.199672 1.73138 5.34806e-19)
(0.0591017 2.10788 1.34371e-19)
(1.00857 -0.0212886 0)
(1.01163 -0.0229709 0)
(1.00575 -0.0275335 0)
(1.01089 -0.00446273 0)
(1.0073 -0.00504825 0)
(1.00483 -0.00640799 0)
(1.00946 -0.0111473 0)
(1.01022 -0.0160802 0)
(1.0225 -0.000664077 4.02113e-19)
(1.02133 0.000224291 -5.1448e-19)
(1.02113 0.00224244 -3.97479e-19)
(1.01693 0.00434386 4.88594e-19)
(0.73576 1.21554 0)
(0.609046 1.24106 6.30182e-19)
(0.827324 1.14296 3.82052e-19)
(0.871726 1.09393 -5.08332e-19)
(1.1645 2.58606 -3.59922e-19)
(0.82206 0.126644 2.76376e-19)
(1.10888 0.0895524 0)
(1.15589 0.173745 7.68686e-20)
(1.1441 0.1533 3.74171e-21)
(0.963524 0.134647 0)
(0.162191 2.99414 4.02169e-20)
(0.134732 2.8863 -6.34199e-19)
(0.0622097 2.33135 4.79715e-19)
(0.134587 0.177907 -1.91055e-19)
(0.327968 3.42641 -4.54068e-19)
(0.191054 3.33058 0)
(0.232281 3.36798 5.91374e-19)
(0.247702 3.0664 -5.01372e-19)
(0.341269 3.21316 0)
(0.00886587 3.12029 2.64644e-20)
(0.0192781 3.12958 -3.42087e-19)
(0.0178374 3.12495 5.03532e-19)
(0.0404645 3.14022 0)
(0.0394593 3.15319 0)
(1.20826 2.58543 0)
(0.515473 0.840227 -2.21121e-19)
(1.00382 0.970031 -2.15845e-19)
(0.949073 0.999643 0)
(0.838296 0.897853 6.52693e-20)
(1.03874 0.847832 3.25843e-20)
(0.407811 0.487732 -5.13343e-19)
(0.730676 0.342268 -2.33097e-20)
(0.740393 0.298966 2.14021e-19)
(0.606568 0.436016 1.70442e-20)
(0.570837 0.428356 -6.98435e-19)
(0.696868 0.371644 0)
(0.676621 0.426512 3.51539e-19)
(0.685587 0.424402 0)
(0.647324 0.416957 0)
(0.664874 0.361422 0)
(0.732669 0.606753 1.21757e-19)
(1.15729 0.261022 5.08084e-20)
(1.1573 0.390844 0)
(1.18379 0.361132 0)
(0.790778 0.220583 3.2199e-19)
(0.783843 0.544887 -1.78804e-19)
(0.686061 0.502434 2.85903e-19)
(0.873233 0.408127 -2.68413e-19)
(1.01971 0.0021166 2.76679e-19)
(1.01492 0.0151229 -2.80173e-19)
(1.01507 0.012507 0)
(1.02064 0.0122292 0)
(1.01104 0.00701386 -2.5265e-19)
(1.0124 0.00833151 2.49788e-19)
(1.0225 0.00363041 0)
(1.02378 -0.000771824 0)
(1.01659 0.00880105 0)
(1.01954 0.013771 0)
(1.03107 0.00235983 0)
(1.02758 0.0021837 0)
(0.00327392 1.8014 0)
(0.00617701 1.79483 0)
(0.0137217 1.79562 3.27151e-20)
(0.0355258 1.70766 1.54104e-19)
(0.0175535 1.7779 3.09075e-19)
(0.0189204 1.75188 -5.18236e-19)
(0.00493101 1.79693 0)
(0.00933769 1.81404 -9.81705e-20)
(0.0168496 1.81062 0)
(0.0895535 2.05355 -1.91464e-19)
(0.15271 1.913 5.40805e-19)
(-0.00535257 1.83265 8.84685e-20)
(-0.0295604 1.73991 6.99333e-20)
(-0.0122754 1.77632 -5.62116e-20)
(-0.0751689 1.73884 7.48165e-20)
(0.00883124 1.86344 0)
(-0.0064015 1.8901 -1.55024e-20)
(0.00409707 1.80155 -4.64638e-20)
(0.00451306 1.79373 0)
(0.00351585 1.78422 1.92534e-19)
(0.00488218 1.79153 0)
(0.000481279 1.79459 -1.84327e-19)
(0.00217456 1.79377 0)
(-0.0151054 1.78714 -4.09409e-20)
(-0.00106786 1.79581 0)
(-0.00706265 1.79596 0)
(-0.0175449 1.78523 4.64024e-20)
(0.00908117 1.79455 -9.01197e-22)
(0.0202781 1.79767 1.91437e-19)
(0.0185926 1.7965 1.33317e-21)
(-0.0100523 1.7841 3.49635e-20)
(-0.00968925 1.78557 2.17097e-20)
(-0.0155883 1.79507 0)
(-0.012921 1.79634 0)
(0.0104695 1.7969 1.078e-19)
(0.0102165 1.79661 7.18365e-20)
(0.00504224 1.79354 -1.06016e-19)
(0.0138453 1.79987 0)
(-0.00736268 1.78079 -6.50653e-20)
(-0.00598997 1.78945 2.87582e-20)
(-0.00941245 1.78849 -9.24963e-21)
(-0.00734212 1.78336 -4.35882e-20)
(-0.00647252 1.79218 -1.51009e-20)
(-0.00542522 1.7947 7.0939e-20)
(1.01626 0.00695929 -2.63997e-19)
(1.01324 0.00675394 2.75139e-19)
(1.01096 0.00488631 0)
(0.992226 0.049628 3.92738e-19)
(0.985149 0.030674 -4.61238e-19)
(0.961718 0.0269117 5.23233e-19)
(0.996217 0.0931545 -5.04367e-20)
(1.02556 0.00635372 0)
(1.03094 0.0105625 2.26158e-19)
(1.03233 0.00479776 -2.24269e-19)
(1.03267 0.0384659 -1.25978e-20)
(1.02934 0.0231559 1.12057e-19)
(1.01211 0.0378479 0)
(1.0052 0.0343243 -4.103e-20)
(1.00687 0.0246835 0)
(1.01181 0.0191004 0)
(1.02086 0.00493328 0)
(1.01838 0.00401268 0)
(1.01012 0.0244259 8.62141e-20)
(1.01575 0.0168959 -1.94802e-19)
(1.0131 0.0349531 -8.78648e-20)
(1.00947 0.0312198 -9.97921e-20)
(1.0093 0.0361421 1.81252e-19)
(1.04544 0.038055 0)
(1.03427 0.0859007 0)
(-0.00591473 1.77887 -2.26498e-20)
(-0.00460086 1.77097 -2.17151e-21)
(-0.00564873 1.773 0)
(0.000115006 1.78324 2.15141e-20)
(0.00161771 1.77743 3.73242e-21)
(-0.000657448 1.78186 -3.79059e-21)
(-0.00444461 1.79657 5.22545e-20)
(-0.00760643 1.79259 -3.23268e-21)
(-0.00684883 1.79186 1.51869e-20)
(-0.00562746 1.79356 -2.75222e-20)
(-0.00466616 1.79392 3.24173e-20)
(-0.00819573 1.78721 2.64173e-22)
(-0.0107498 1.77639 2.68582e-20)
(-0.0318363 1.55283 -3.05565e-19)
(-0.0937852 1.75167 -1.70941e-19)
(0.586578 1.25286 -6.06305e-19)
(0.336371 1.38524 -2.7838e-19)
(0.464331 1.35827 0)
(0.458718 1.74529 2.17577e-19)
(0.530853 1.58356 2.9829e-19)
(0.271737 1.72277 7.26562e-20)
(0.267736 1.79671 -6.34249e-19)
(0.329671 1.89001 5.74594e-19)
(0.400677 1.70973 0)
(0.335343 1.70857 -4.53095e-19)
(0.0938765 1.78079 8.96752e-19)
(0.163658 1.76027 -6.16213e-20)
(0.103345 1.77196 -1.23278e-18)
(0.895226 2.31865 2.41898e-20)
(0.7147 1.92344 0)
(1.01823 -0.0116039 9.31311e-21)
(1.01267 -0.0189421 -7.39459e-21)
(1.01597 -0.0152958 -1.31986e-19)
(1.03183 -0.0115186 1.36685e-19)
(1.03047 -0.0106487 0)
(0.704436 1.02202 0)
(0.786492 0.963419 0)
(0.751757 1.06654 0)
(0.734513 1.01618 0)
(1.18336 2.62971 1.23941e-20)
(1.0344 2.35221 0)
(0.982306 2.54572 -7.39525e-21)
(0.580735 2.69903 0)
(0.871298 2.76845 2.9039e-19)
(0.933928 2.74024 -1.88835e-19)
(0.833845 0.154018 0)
(0.807806 0.154387 8.01569e-20)
(0.885374 0.123695 4.05861e-19)
(0.845262 0.11513 -1.60732e-19)
(0.843412 0.075674 -4.92534e-19)
(1.0071 0.200178 -2.41017e-19)
(0.91743 0.263569 -1.67708e-20)
(0.892976 0.255302 3.70011e-19)
(0.949496 0.167981 2.72175e-19)
(0.914538 0.15373 -5.08288e-19)
(0.898115 0.154673 6.5986e-20)
(0.93568 0.20895 -1.28527e-19)
(0.907472 0.173577 0)
(0.968992 0.148235 2.41945e-19)
(0.994634 0.155904 0)
(0.986373 0.168996 0)
(1.04339 0.104203 7.60069e-20)
(1.01244 0.152503 -1.30185e-20)
(1.00454 0.211061 -4.13688e-20)
(1.05296 0.189122 0)
(1.00367 0.0264074 2.00923e-19)
(1.00467 0.034034 2.41941e-19)
(1.00833 0.0303298 -1.98882e-19)
(1.008 0.0412044 -1.62442e-19)
(1.00023 0.0521645 -2.7602e-19)
(0.950865 0.127722 0)
(0.983983 0.0923011 0)
(0.959012 0.0383342 -1.88933e-19)
(0.91949 0.0512279 8.00928e-20)
(1.00344 0.0848928 2.30904e-19)
(1.0064 0.104878 -2.36082e-19)
(1.01667 0.139656 2.16488e-19)
(1.00824 0.129804 0)
(1.01667 0.0832855 0)
(1.00531 0.0666611 -9.83354e-20)
(1.00867 0.0741534 -1.85362e-19)
(0.924619 1.20206 -1.43054e-19)
(0.869982 1.41024 1.66289e-19)
(1.18672 2.6976 2.49053e-20)
(1.21467 3.05487 -6.15477e-20)
(1.24975 2.70317 3.96929e-19)
(1.27784 2.68025 -2.82868e-19)
(1.20582 2.33008 -2.40407e-21)
(1.20677 2.95542 1.30396e-19)
(1.2308 2.92512 -1.13647e-19)
(1.20364 3.21168 -2.49705e-19)
(1.36437 2.9366 3.38074e-19)
(1.35171 2.8605 0)
(0.502604 0.857302 -1.52566e-20)
(0.174362 1.33561 3.17826e-19)
(0.527525 0.540487 3.41507e-19)
(0.354293 0.338241 3.79142e-19)
(0.56773 0.447124 3.89956e-19)
(0.539616 0.500851 -6.20195e-19)
(0.538897 0.513825 5.07635e-19)
(0.51937 0.479639 -2.04785e-19)
(0.4941 0.417809 4.76785e-19)
(0.797409 0.247927 -1.79255e-19)
(0.763446 0.288059 0)
(0.772288 0.255986 1.16573e-20)
(0.662376 0.510925 1.82064e-19)
(0.655166 0.480116 -6.68549e-19)
(0.589189 0.502364 1.79927e-20)
(0.616421 0.461832 0)
(0.614646 0.74706 1.49488e-19)
(0.79985 0.736529 3.85022e-20)
(0.741515 0.814806 -5.47302e-20)
(0.83842 0.767658 -1.19922e-20)
(0.893828 0.811405 1.64385e-20)
(0.902001 0.816234 -1.68082e-20)
(0.773096 0.629688 -2.05468e-19)
(0.864961 0.712807 1.11323e-20)
(0.939142 0.701713 0)
(0.919826 0.663872 -9.93728e-21)
(0.947941 0.293984 5.71007e-20)
(1.06502 0.263708 2.32774e-21)
(0.993112 0.230371 9.90135e-20)
(0.929825 0.332163 -1.31684e-19)
(0.980693 0.406881 0)
(1.03891 0.393823 0)
(0.837816 0.339982 1.70492e-21)
(0.850621 0.271336 0)
(0.853866 0.250238 1.89735e-19)
(0.862199 0.260418 -3.61671e-21)
(0.865751 0.409856 7.3374e-19)
(0.832674 0.475642 1.82487e-19)
(0.827263 0.435568 -2.4157e-19)
(0.755319 0.433855 2.59512e-19)
(0.745109 0.431078 1.74773e-19)
(0.725489 0.419852 -1.71724e-19)
(1.02118 0.0135612 2.20344e-19)
(1.03007 0.00374302 0)
(1.03295 0.00148591 1.46233e-19)
(1.01943 0.00912753 -3.30933e-19)
(1.0306 0.00410273 1.56595e-19)
(1.02949 0.00343828 -3.30596e-19)
(1.02594 -0.000989701 0)
(1.02392 -3.82455e-05 -7.00648e-20)
(1.02971 0.00300841 1.70661e-19)
(1.02164 0.00763403 -8.87158e-20)
(1.02332 0.00598885 6.46533e-20)
(-0.00953271 1.79001 0)
(-0.00795481 1.79387 0)
(0.00919428 1.79673 0)
(-0.0025707 1.79162 0)
(0.00338802 1.79996 8.96083e-21)
(0.00410236 1.79805 -9.94712e-22)
(0.00412786 1.80961 -3.18162e-20)
(-0.00160368 1.80122 -3.12919e-20)
(0.0143588 1.80251 -5.95729e-20)
(0.0104238 1.80227 4.4349e-20)
(0.0111945 1.80479 -1.52895e-20)
(0.00852921 1.81148 4.92201e-21)
(0.0082885 1.8051 8.01743e-22)
(0.00634991 1.8017 -5.86552e-21)
(0.00461434 1.78494 -2.1469e-19)
(0.0143654 1.78834 0)
(0.0187994 1.78035 1.1499e-19)
(0.016358 1.79935 7.96237e-20)
(0.0472618 1.83619 -8.56116e-20)
(0.10392 1.80583 0)
(0.109738 1.80488 -6.32831e-19)
(0.138693 1.86252 4.31469e-19)
(0.0509867 1.81401 -2.23269e-19)
(0.0322948 1.7892 1.25092e-19)
(0.0233393 1.78763 0)
(0.00696142 1.7935 -1.43006e-19)
(0.00201906 1.79048 -1.77e-19)
(0.00228947 1.79367 0)
(0.0129441 1.79865 -5.04985e-21)
(0.00824912 1.8002 7.06227e-20)
(-0.0186195 1.78681 5.92976e-21)
(-0.0180654 1.78749 -1.04408e-19)
(-0.0155736 1.78071 2.72536e-20)
(-0.0164172 1.7749 4.01812e-20)
(-0.0146744 1.78607 0)
(-0.0124316 1.7814 0)
(-0.00697148 1.79545 2.83149e-20)
(-0.0057915 1.78436 -9.05829e-21)
(-0.0109815 1.78278 0)
(-0.0114647 1.7965 2.32756e-20)
(-0.00925702 1.7964 -4.34003e-20)
(1.01842 0.013807 0)
(1.02077 0.0126003 -2.07826e-20)
(1.01585 0.0153818 -1.55224e-19)
(1.01763 0.0216021 0)
(1.01795 0.0234498 0)
(1.01983 0.0066311 -5.01941e-21)
(1.02078 0.00672189 2.59151e-19)
(1.01846 0.00764941 3.1526e-19)
(1.01849 0.00732991 0)
(1.01755 0.00751366 0)
(1.01702 0.0125517 1.57884e-19)
(1.01615 0.00995852 0)
(1.01826 0.0101171 0)
(-0.0126303 1.78063 0)
(-0.0114146 1.77334 2.61001e-21)
(-0.0114526 1.77338 1.40733e-20)
(-0.00739052 1.78345 0)
(-0.0102888 1.77828 2.00026e-20)
(-0.00876201 1.78447 -9.13563e-21)
(-0.00577441 1.78694 0)
(0.0393925 2.36824 0)
(-0.188744 1.81836 3.79078e-19)
(-0.103937 2.07307 0)
(-0.0708519 1.60686 -6.91007e-19)
(0.147608 1.21431 0)
(0.0212512 1.47047 3.54234e-19)
(1.04032 2.85738 2.57332e-21)
(0.908484 2.48899 -3.62624e-20)
(0.887995 2.29738 -5.11606e-19)
(0.743037 2.05278 2.03318e-19)
(0.683854 2.60911 0)
(0.806305 2.65816 0)
(0.863251 2.26685 0)
(0.860105 2.04782 -6.11363e-19)
(0.279417 2.6217 -1.85542e-19)
(0.505062 2.66458 -4.39501e-20)
(0.531728 2.66313 3.36646e-20)
(0.54518 1.74354 0)
(0.657009 1.87331 0)
(0.644175 1.6907 -3.23654e-19)
(0.451711 2.42823 0)
(0.727201 1.05412 0)
(0.495945 0.970922 -9.45442e-20)
(0.573091 0.944872 -6.83809e-21)
(0.75133 1.06995 0)
(0.561872 1.15971 1.53707e-19)
(0.787165 0.87566 2.39678e-20)
(0.804147 0.984535 0)
(0.770355 0.915519 -7.99148e-20)
(0.676882 1.06932 0)
(0.639261 0.9606 0)
(1.19693 2.77395 2.9695e-20)
(1.18845 2.80709 1.10888e-19)
(1.14786 2.33482 -2.59397e-19)
(1.11423 2.43472 1.15824e-19)
(1.16846 2.79383 0)
(1.09949 2.81367 -1.47734e-19)
(1.05423 2.52522 -7.15969e-20)
(0.893399 2.25479 -1.96711e-20)
(0.784031 1.77181 0)
(0.816568 1.07257 1.24412e-19)
(0.770007 1.0205 0)
(0.856524 0.192103 0)
(0.824869 0.172273 0)
(0.774267 0.188423 0)
(0.861274 0.208799 -2.96675e-19)
(0.810325 0.219254 1.86025e-19)
(0.920413 0.0499791 -1.59072e-19)
(0.917861 0.0918581 0)
(0.888234 0.103455 7.66198e-20)
(0.880816 0.0631944 3.07037e-19)
(0.887428 0.0504129 -1.89271e-19)
(1.13964 3.33979 -9.39992e-19)
(1.19305 3.25897 0)
(1.13801 3.37862 -1.92416e-18)
(0.623463 3.54466 1.63394e-18)
(0.843652 3.14562 3.78793e-19)
(0.48815 0.904346 2.60744e-19)
(0.399945 0.964791 0)
(0.323494 0.554914 -7.67938e-20)
(0.381649 0.698708 3.57838e-19)
(0.510455 0.522473 -1.06533e-19)
(0.491867 0.552349 1.18904e-19)
(0.599633 0.51592 2.55605e-19)
(0.622044 0.539381 0)
(0.597199 0.608693 0)
(0.550785 0.548568 0)
(0.920895 0.578007 -5.29722e-20)
(0.832527 0.518241 -1.76314e-19)
(0.859439 0.565427 7.83409e-20)
(0.889936 0.490297 -1.31285e-19)
(1.00774 0.462572 0)
(0.99621 0.539371 -4.2842e-21)
(0.782631 0.385086 -3.88448e-19)
(0.790708 0.369448 -4.46488e-19)
(0.760717 0.391675 3.04449e-19)
(0.759559 0.362091 -3.43631e-19)
(0.827171 0.304116 -2.47159e-19)
(0.795868 0.311383 3.04663e-19)
(1.02769 0.00786081 -1.67147e-19)
(1.02662 0.00772688 3.4596e-19)
(1.02233 0.0143338 2.01783e-19)
(1.02264 0.0138435 -2.36762e-19)
(1.01599 0.0146938 0)
(1.02097 0.0081111 -4.08409e-19)
(0.0128055 1.79935 2.69763e-20)
(0.0110638 1.79799 0)
(0.00946666 1.7919 2.34633e-19)
(0.0125976 1.7997 -2.20025e-19)
(0.00410664 1.80202 5.94357e-20)
(0.00576487 1.79919 0)
(-0.00999303 1.78 0)
(-0.0113245 1.77836 -1.14204e-20)
(-0.011713 1.77691 9.81561e-21)
(-0.0111493 1.7773 2.4934e-21)
(-0.011306 1.77965 -2.01966e-20)
(-0.0101352 1.78039 1.21864e-20)
(0.531886 1.91648 1.09883e-18)
(0.262612 1.98727 -1.19352e-18)
(0.0139308 1.59501 7.53706e-19)
(0.00539755 2.13488 -4.84843e-20)
(0.610295 1.00846 0)
(0.304167 1.13538 6.1805e-19)
(0.39673 1.04634 -6.05035e-19)
(0.15434 1.10515 -7.36919e-19)
(0.463317 1.16904 0)
(0.651349 0.967816 0)
(0.197446 2.55354 2.76298e-19)
(0.368451 2.19496 1.31057e-18)
(0.433299 2.34567 -8.28763e-19)
(0.384553 2.109 -1.80384e-19)
(0.18746 2.30555 2.61431e-19)
(0.302908 2.00041 -6.97194e-19)
(0.914986 2.52183 3.19239e-19)
(0.942836 2.48361 0)
(0.850208 2.27481 1.24637e-19)
(1.04945 2.81951 0)
(1.07221 2.82363 0)
(0.566216 2.30612 1.50391e-19)
(1.02135 3.15571 4.1403e-19)
(0.895188 3.04811 -3.49395e-19)
(0.293451 1.00538 0)
(0.285023 0.84339 -1.50959e-19)
(0.431075 0.815982 -1.09694e-19)
(0.313403 2.09084 0)
(0.464493 2.82497 -2.64993e-19)
(0.388467 2.60158 0)
(0.656365 0.656812 -3.05713e-19)
(0.701868 0.663648 3.74063e-19)
(0.732583 0.611617 -3.63012e-19)
(0.611936 0.628187 -4.45533e-20)
(0.666469 0.580017 -1.81415e-19)
(0.983499 2.80442 -3.14311e-19)
(1.03755 2.79211 2.2861e-19)
(0.556312 2.13929 2.50695e-19)
(0.587877 1.77216 -2.06348e-19)
(0.770486 1.87793 -7.8227e-20)
(0.975335 2.47768 -1.06078e-19)
(0.999576 2.36846 -5.92065e-20)
(0.567794 1.87617 1.47295e-21)
(0.523067 1.40835 2.82292e-20)
)
;

boundaryField
{
    wall-4
    {
        type            noSlip;
    }
    velocity-inlet-5
    {
        type            fixedValue;
        value           uniform (1 0 0);
    }
    velocity-inlet-6
    {
        type            fixedValue;
        value           uniform (0 3 0);
    }
    pressure-outlet-7
    {
        type            zeroGradient;
    }
    wall-8
    {
        type            noSlip;
    }
    frontAndBackPlanes
    {
        type            empty;
    }
}


// ************************************************************************* //
