/*--------------------------------*- C++ -*----------------------------------*\
  =========                 |
  \\      /  F ield         | OpenFOAM: The Open Source CFD Toolbox
   \\    /   O peration     | Website:  https://openfoam.org
    \\  /    A nd           | Version:  9
     \\/     M anipulation  |
\*---------------------------------------------------------------------------*/
FoamFile
{
    format      ascii;
    class       volScalarField;
    location    "2";
    object      p;
}
// * * * * * * * * * * * * * * * * * * * * * * * * * * * * * * * * * * * * * //

dimensions      [0 2 -2 0 0 0 0];

internalField   nonuniform List<scalar> 
918
(
0.844534
0.495491
0.0411161
0.836874
0.000666858
0.450826
-0.641795
0.560363
0.835926
-0.0670838
0.0496426
0.703415
0.325566
0.0894531
-1.05851
0.0393861
0.762152
-0.785402
0.744373
0.019081
0.213338
0.892563
0.814364
0.712014
0.728106
0.0928338
0.126936
0.0229142
-0.0113127
-0.0071471
0.0187357
0.0233168
0.0230432
0.331234
0.385211
0.408507
0.700653
0.424001
-0.40177
-0.45896
-0.498246
-0.834834
0.597507
0.627134
-0.0214554
0.512719
0.467259
0.733551
0.819248
0.835995
0.809162
0.827809
0.8703
0.324651
-0.0986949
-0.142744
-0.0236441
-0.0185297
0.126401
0.0443456
0.0265481
0.0587558
0.0328445
0.6478
0.701545
0.693469
0.713049
0.705757
0.437694
0.391078
0.423512
0.373322
0.381078
0.327474
0.306729
0.113241
0.127523
0.0626885
0.0547806
-1.22768
-1.72021
-0.742754
-0.605726
0.0154591
0.0360528
0.0651096
0.760716
0.770261
0.738239
0.739967
0.692625
-0.651525
-0.904069
0.758563
0.756067
0.851984
0.804551
0.787868
0.734871
0.0188885
0.0281052
0.0283769
0.0426717
0.0267295
0.164291
0.24683
0.68871
0.73614
0.6942
0.718734
0.704588
0.469761
0.752832
0.752802
-0.0307715
0.0364972
0.0752873
0.0576698
0.183087
0.157854
0.254692
0.299798
-0.00677452
0.00447974
0.0480483
0.0185385
0.0308993
0.69643
0.684788
0.723177
0.700088
0.721735
0.31729
0.174909
0.484738
0.607492
-0.196234
-0.223577
-0.705398
-0.670974
-0.923421
0.819882
0.648118
0.679682
-0.0315757
0.0158305
-0.14323
0.0917944
0.0262963
0.730818
0.729635
0.718849
0.740801
0.737089
0.746211
0.826987
0.828513
0.839249
0.338201
0.3911
0.305941
0.255754
-0.398899
-0.199871
-0.392203
0.0166775
0.0343136
0.127972
0.145183
0.131999
0.0981368
0.0269123
0.0438825
0.0551485
0.023618
0.0331723
0.648815
0.628198
0.65337
0.66163
0.712074
0.700161
0.698517
0.707488
0.262719
0.246361
0.232531
0.217975
-2.21342
-3.97736
-0.446578
-0.365746
0.0157865
0.01277
0.00526818
0.00190763
0.00503566
-0.00546023
0.077179
0.0698328
0.0534457
0.0656049
0.763509
0.774983
0.692555
0.741391
0.614712
0.635909
0.736593
0.746904
0.75377
0.749459
0.0375145
0.0224867
0.0277142
0.412345
0.278772
0.342987
0.440787
0.359913
0.512207
0.543456
0.764603
0.75873
0.776865
0.00575835
0.0100924
0.284936
0.315719
0.297859
0.281164
0.317045
0.337186
0.343254
0.658715
0.689383
0.682445
0.725762
0.722899
0.730746
0.720774
0.711833
0.71025
0.0555879
-0.20451
0.781929
0.725729
0.651496
0.719364
0.787006
0.810433
0.726087
0.687831
0.714675
0.171182
0.162245
0.226196
0.204421
0.580296
0.60466
0.589552
0.202572
0.129532
0.159394
0.15206
0.125207
0.175554
-0.191513
-1.03001
-0.553922
-0.137281
-0.282619
-0.182993
0.0743035
0.102136
0.0835101
0.713106
0.757588
0.420317
0.55433
0.528445
0.0568735
0.0498208
0.138267
0.0722648
0.0672269
0.106342
0.0674063
0.788032
0.773706
0.817028
0.779268
0.806342
0.324758
0.251523
0.212298
0.167565
0.176703
0.173746
0.739833
0.767135
0.791894
0.715466
0.722551
0.00298863
0.0206441
0.790834
0.819705
-0.0139114
0.00317907
-0.289754
-0.798429
0.348062
0.757838
0.741534
0.77835
-0.0527046
0.267026
0.0390809
0.131195
0.0806075
0.692094
0.649538
0.602091
0.00390908
0.0495953
0.0268942
-0.223064
0.788793
0.749795
0.789153
0.794098
0.790296
0.0127373
0.0152004
0.0304239
0.0117096
0.0301078
0.0539657
0.712928
0.706711
-0.122268
0.777982
0.779585
0.785773
0.772491
0.790322
0.76532
0.0320797
0.0387581
0.0590709
0.427064
0.539141
-0.0591997
0.150517
-0.277278
-0.341562
-0.426152
-0.156817
-0.0497556
-0.177438
0.0663569
0.636773
0.516529
0.405342
0.225372
0.401863
0.34462
0.747685
0.756128
0.738113
0.738433
0.768896
0.733329
0.791144
0.75846
0.783848
0.804539
0.0277622
0.00114968
-0.0241985
-0.111451
0.311947
0.394256
0.230658
0.286401
0.169192
0.0220109
0.0568033
0.0335547
0.0390346
0.0809391
0.116898
0.0886083
0.148025
0.0994421
0.115615
0.0574105
0.102241
0.0661129
0.672939
0.682913
0.684075
0.722144
0.662475
0.658817
0.632279
0.648854
0.660236
0.588514
0.604668
0.597655
0.0211824
0.0327781
0.0322102
0.0768031
0.0502671
-0.0206157
-0.0151848
-0.0206661
0.000494896
-0.00137133
0.022756
0.0241439
-0.155178
-0.307488
0.64183
0.53918
0.29237
0.737953
0.7649
0.735923
0.769686
0.797966
0.824602
0.795061
0.76466
0.716258
0.725527
0.69937
0.717613
-0.0376035
-0.169061
0.00532914
-0.0645725
0.407806
0.741821
0.553883
0.508384
0.500427
0.636913
-0.59842
-0.430025
0.164839
0.0956802
-0.591339
-0.498844
-0.621971
-0.409056
-0.202709
-0.0354715
0.0331412
0.0622501
0.0529398
-0.0582048
-0.0231259
0.670053
0.144511
0.136119
0.425739
0.303525
0.0729598
0.666224
0.684522
0.47787
0.420635
0.604053
0.570298
0.584568
0.569875
0.598736
0.618305
0.448343
0.444547
0.390128
0.714327
0.622807
0.631938
0.589977
0.751972
0.757867
0.739571
0.731161
0.733764
0.713434
0.725778
0.713607
0.731597
0.751137
0.740675
0.735978
0.0178263
0.0290619
-0.029072
-0.122084
-0.0722148
-0.156584
-0.026685
0.142572
0.0545556
0.259646
0.362058
0.143854
-0.0855734
0.0423729
0.0364146
0.220114
0.203937
0.148154
0.1863
0.185357
0.151607
0.250747
0.232188
0.0970965
0.101237
0.0743363
0.0427216
0.153995
0.130693
0.168471
0.0906261
0.101029
0.0602802
0.0453207
0.102679
0.110617
0.104908
0.0920108
0.0380177
0.0513679
0.0149986
0.0441498
0.125246
0.106866
0.708526
0.69852
0.697285
0.675248
0.722722
0.71365
0.64525
0.705845
0.704403
0.69578
0.648847
0.638473
0.64247
0.649263
0.669948
0.667949
0.720153
0.713395
0.665288
0.678777
0.624186
0.64384
0.621668
0.621684
0.620842
0.00207547
0.0102512
-0.00484881
0.00927481
0.0321546
0.0578438
0.0854442
0.0569441
0.0868459
0.0734127
0.075037
0.0031458
0.0217346
0.00677765
0.118712
-0.142201
-0.168334
-0.290857
0.633044
0.683365
0.542485
0.464558
0.538156
0.582197
0.613135
0.427961
0.465148
0.504888
0.741502
0.7281
0.72289
0.726284
0.751863
0.743612
0.741544
0.0913403
0.249237
0.279186
0.412746
0.498403
0.518136
0.486112
0.486613
0.572612
0.552882
0.732652
0.748629
0.723593
0.743992
0.756944
0.569248
0.675242
0.685831
0.708456
0.680859
0.692792
0.703088
0.688435
0.646272
0.648108
0.659359
0.602792
0.618362
0.608964
0.61498
0.661442
0.655024
0.665174
0.651617
0.673598
0.665739
0.701898
0.738986
0.71863
0.620412
0.597229
0.621285
0.63787
0.616517
0.62602
0.617948
0.490249
0.596521
0.487647
0.229151
0.321382
0.0726492
0.0815115
0.24248
0.423568
-0.0112613
-0.12014
-0.460949
0.728162
-0.805148
-0.24337
-0.675842
0.366078
0.381042
0.287714
0.192819
0.280502
0.694454
0.70017
0.712791
0.590572
0.554184
0.461614
0.505808
0.771173
0.610464
0.615895
0.597859
0.441263
0.512442
0.607684
0.569411
0.492854
0.515366
0.611962
0.504414
0.523191
0.606143
0.549729
0.555653
0.636742
0.675497
0.681374
0.651206
0.583015
0.611603
0.605194
0.625923
0.638632
0.628242
0.726288
0.72329
0.712062
0.721894
0.728519
0.730199
0.702971
0.739273
0.75105
0.760296
0.750215
0.04411
0.0649698
0.0479783
0.018101
0.0972056
0.0774583
0.0127153
-0.0218516
0.115118
0.105839
0.0599282
0.0380743
0.0805028
0.0799039
0.15307
0.201361
0.212677
0.155492
0.292264
0.37363
0.424317
0.376249
0.26414
0.26132
0.307757
0.104638
0.115718
0.102265
0.0989825
0.106437
0.0154525
0.0331583
0.015284
0.0997599
0.0796822
-0.0249137
0.0395116
0.0394098
0.00183211
0.028762
0.0402585
0.688839
0.666991
0.63777
0.619868
0.64312
0.649883
0.691389
0.708819
0.722703
0.710925
0.703873
0.696366
0.710966
0.0219303
0.055984
0.0587554
0.0390545
0.0339762
-0.00463175
0.0152268
0.37512
0.21237
0.262962
0.155264
-0.018411
0.0325579
0.611483
0.716607
0.745819
0.71098
0.635352
0.648309
0.708529
0.74169
0.486191
0.587159
0.522529
0.66056
0.683487
0.709617
0.617638
0.44705
0.640479
0.735022
0.46373
0.487883
0.544482
0.473907
0.513938
0.495622
0.646257
0.505342
0.500735
0.543343
0.510866
0.555108
0.585776
0.583253
0.652588
0.406991
0.405994
0.315257
0.69937
0.726063
0.742841
0.703644
0.722753
0.71605
0.708248
0.725873
0.75222
0.752942
-0.231085
-0.0106708
-0.817459
-0.602915
-0.132952
0.703046
0.565004
0.324627
0.589454
-0.000885981
0.287648
0.50212
0.555828
0.585712
0.468812
0.55717
0.590894
0.575981
0.589916
0.498078
0.463475
0.661391
0.665823
0.647805
0.661574
0.659977
0.673619
0.693773
0.726179
0.683974
0.713895
0.711234
0.725178
0.159799
0.11478
0.144879
0.13779
0.114461
0.120555
-0.0131566
-0.0101125
0.0557537
0.0629176
0.0622072
0.0987497
0.397988
0.407737
0.220789
0.343039
0.127809
0.0397
-0.0139139
0.13838
0.255313
0.27119
0.515382
0.610196
0.572255
0.569846
0.501741
0.572019
0.705237
0.654433
0.704791
0.626726
0.619576
0.47874
0.131137
0.123161
-0.168824
0.365158
0.562814
0.510419
0.153013
-0.0109294
0.691577
0.638683
0.605624
0.627714
0.601936
0.309889
0.36992
0.726905
0.919872
0.594213
0.535449
0.509508
0.670003
0.598824
)
;

boundaryField
{
    wall-4
    {
        type            zeroGradient;
    }
    velocity-inlet-5
    {
        type            zeroGradient;
    }
    velocity-inlet-6
    {
        type            zeroGradient;
    }
    pressure-outlet-7
    {
        type            fixedValue;
        value           uniform 0;
    }
    wall-8
    {
        type            zeroGradient;
    }
    frontAndBackPlanes
    {
        type            empty;
    }
}


// ************************************************************************* //
