/*--------------------------------*- C++ -*----------------------------------*\
  =========                 |
  \\      /  F ield         | OpenFOAM: The Open Source CFD Toolbox
   \\    /   O peration     | Website:  https://openfoam.org
    \\  /    A nd           | Version:  9
     \\/     M anipulation  |
\*---------------------------------------------------------------------------*/
FoamFile
{
    format      ascii;
    class       surfaceScalarField;
    location    "2";
    object      phi;
}
// * * * * * * * * * * * * * * * * * * * * * * * * * * * * * * * * * * * * * //

dimensions      [0 3 -1 0 0 0 0];

internalField   nonuniform List<scalar> 
1300
(
3.75095
5.62643
-6.66439
3.75095
-6.45107
5.62643
-6.27108
6.27108
-1.58755
1.58755
1.88493
1.86602
-5.81097
5.81097
-5.62491
5.62491
-3.05301
3.05301
-5.24834
5.24834
-5.14367
5.14367
4.14746
-4.14746
-5.30706
5.30706
-2.17185
2.17185
-6.36673
6.36673
3.1695
-3.1695
-5.62458
5.62458
-1.52786
1.52786
-0.536797
4.28775
3.21416
3.21416
-2.77069
2.77069
-5.05632
5.05632
6.19096
-6.19096
9.77347
-9.77347
-3.10908
-3.27341
1.33593
-7.96964
-5.11514
-5.11514
-8.4387
8.4387
-2.81227
2.81416
3.19875
-3.19875
-2.2354
2.2354
-5.9317
-0.339384
-5.9317
6.50639
-0.235305
6.50639
-1.7314
0.143854
-1.7314
4.70777
-4.70777
1.41535
0.172202
1.41535
3.19027
-3.19027
-1.88622
3.77115
1.86473
-1.83746
6.12521
-1.91349
3.77951
-4.88539
4.88539
-5.94854
0.137574
-5.94854
5.75235
0.0586193
5.75235
-5.4951
5.4951
-5.62677
0.00186815
-5.62677
5.60854
0.0163647
5.60854
3.26773
-3.26773
-3.09973
0.0467212
-3.09973
3.0765
-0.023489
3.0765
0.356346
5.27008
-5.98278
8.79693
-5.27008
0.0217465
5.25528
-0.00694316
5.25528
-5.18318
0.0395044
-5.18318
5.11948
0.0241944
5.11948
3.92355
0.223902
3.92355
-4.48291
0.335453
-4.48291
-3.21906
-3.34467
-5.36194
0.0548824
-5.36194
-2.22079
0.0489383
-2.22079
2.09957
0.0722795
2.09957
-3.90538
3.90538
-6.5616
0.194871
-6.5616
3.1211
0.0483954
3.1211
1.8722
1.87876
5.62315
-5.62315
2.45365
-5.62128
-0.00329461
-5.62128
-5.60294
-4.17053
5.60294
0.02164
-1.27825
-0.249612
-1.27825
3.23432
-0.0201585
3.23432
2.9603
0.116207
-2.9603
0.189601
3.68694
-3.68694
2.20087
0.56982
2.20087
-5.52665
5.52665
5.10422
0.0152558
-5.10422
0.047902
6.10239
0.0885668
6.10239
-6.206
0.0150377
-6.206
3.34945
-6.62287
-3.28209
5.20538
0.101671
-5.20538
0.0902469
3.22718
-0.0284305
3.22718
-3.16177
3.16177
-3.19269
-0.00605604
-3.19269
-2.00512
-0.230275
-2.00512
2.47203
-0.236632
2.47203
-5.45993
-0.471774
-5.45993
-6.62763
0.0660297
6.62763
-0.12124
3.00977
-3.00977
-1.85866
0.127255
-1.85866
-5.00402
-0.455904
5.00402
-0.296255
-4.42573
-0.282036
-4.42573
-3.20804
0.0153523
3.20804
-0.0177768
3.16136
0.0729507
-3.16136
-0.0289013
-1.87396
3.75272
-1.87699
3.74173
-4.77713
-0.108255
-4.77713
5.11523
-0.22984
5.11523
6.19209
0.174635
-6.19209
0.243554
5.72502
0.0273273
5.72502
-5.45546
-0.0396413
-5.45546
5.57222
-0.077126
5.57222
5.62319
0.10183
-5.62319
-0.00358357
5.60909
-0.000544703
5.60909
3.33217
-0.0644376
3.33217
-3.21806
-0.0496695
-3.21806
3.16948
-3.16948
3.08041
0.0890648
-3.08041
-0.0193231
-11.0369
11.0519
0.00753627
-11.0444
5.26282
5.26282
3.13582
0.787734
3.13582
-4.87018
0.387269
-4.87018
3.28348
-6.56557
3.2723
-6.49136
3.34056
-11.3102
3.29007
-6.63474
5.5149
-5.5149
5.4695
0.0453999
-5.4695
0.107559
-2.19602
-0.0247687
-2.19602
-3.70285
-0.202534
-3.70285
4.2331
-0.327717
4.2331
-3.20857
3.20857
-3.15447
-0.0540996
3.15447
-0.0333698
5.65433
-0.0452476
-5.65433
0.0330489
1.30593
0.109415
-1.30593
0.0276823
3.8497
-0.162763
3.8497
-3.50479
-0.182149
-3.50479
-2.19287
-0.00315475
2.19287
0.00800433
-5.7523
0.225655
-5.7523
-11.1463
0.101836
-11.1532
-6.10416
-6.10416
2.33454
11.1315
-3.21131
-0.00674794
3.21131
0.0158628
3.14486
0.0637048
-3.14486
-0.0169025
-3.16426
-0.00522
3.16426
-0.00248938
-1.9992
-0.00591977
-1.9992
-2.81234
2.81234
-2.65512
-0.157224
2.65512
-0.183089
3.15598
-0.146206
3.15598
2.03374
0.0658369
-2.03374
0.175081
-4.15923
-0.266497
-4.15923
5.28109
-0.165861
5.28109
-3.38536
-0.119429
3.38536
-0.0531913
-0.0201949
11.0721
-5.24262
0.0594425
5.24262
-11.1607
11.2201
-2.38971
0.390503
2.38971
0.746114
5.23479
0.291865
-5.23479
0.364608
5.55343
0.018795
-5.55343
0.0385302
-3.61131
-0.0915416
-3.61131
-4.53822
-0.238914
4.53822
-0.305118
-11.4489
-0.185065
11.6339
-11.4247
5.93737
0.165022
-5.93737
11.3852
-2.93845
-0.0713232
2.93845
-0.126108
3.31968
-0.163702
3.31968
4.04265
-0.192952
-4.04265
-0.11658
-5.33834
-0.117116
5.33834
-0.0572529
-3.45223
-0.159073
3.45223
-0.132552
-4.15309
4.13293
1.97212
-3.37246
-3.25041
-7.54299
1.7586
1.99411
4.21226
-7.04384
-4.26636
-6.9536
7.1096
-6.74499
-7.93841
8.16231
7.45252
-7.73456
-5.83922
5.80585
6.31581
-6.33359
1.84416
1.927
10.7868
-10.6492
-10.028
9.91973
10.1093
-10.1075
10.454
-10.4936
-12.1231
12.1419
-5.6238
5.67052
-6.59091
6.54124
-6.64697
6.59378
-3.3373
-3.15406
8.90547
-8.85058
11.6081
-11.6114
-11.2272
11.422
3.27324
0.859694
3.34619
-1.93568
3.77984
-1.84383
3.81595
3.25081
-6.58811
3.31476
-6.56517
5.94927
5.65885
-5.97091
-1.57207
-5.87793
5.8495
-5.78941
5.78692
10.7335
-11.0729
-1.85933
3.78633
-1.8824
3.87651
-3.3827
-2.45652
3.33431
0.877949
5.5168
3.38866
-5.61847
-1.33512
-7.5741
7.38115
-7.70251
7.52036
-0.420147
5.88977
-5.46962
4.63618
-1.8043
7.69407
5.30529
5.69256
5.7935
-5.50164
0.951488
-6.42111
-6.37321
-2.46241
2.58966
2.38607
-2.21387
6.30252
1.15
6.00627
-5.29143
-2.44313
-5.55792
3.85154
1.95431
3.79744
4.0611
2.25471
4.07646
3.02201
-3.05692
0.0349123
-3.02735
6.04935
0.729405
-5.48387
-4.60592
6.964
3.82281
7.02262
-7.35313
-3.29611
-7.10957
-6.07346
-3.95453
-6.31237
6.5786
3.34113
6.34876
-7.71042
7.65317
6.71017
3.39917
6.72654
-6.76334
-3.34413
-6.76693
10.2014
-2.74885
-7.45251
-6.82077
-5.3023
6.8979
3.55611
7.40217
4.7397
7.4407
3.54145
6.65991
-7.09756
1.79526
-3.7609
-1.8629
-3.78022
3.59957
2.07095
3.57608
-4.22032
-2.37059
-4.22707
-4.19452
-2.45244
4.25896
2.28228
-4.26408
-3.43843
4.38351
2.21027
3.08556
-7.35192
3.54918
-6.70324
-6.29383
-2.55675
-6.18627
4.01804
2.57345
-6.59149
-2.57007
10.7073
-5.04846
9.13524
-7.25599
-4.35543
-7.22294
-8.83307
-2.39409
-8.76704
-5.21682
5.12528
-5.56891
5.24119
10.5004
-5.89201
-4.60841
-3.9665
-2.36709
3.9954
-0.64921
-3.69935
3.73426
0.0804886
3.89644
4.75613
4.10692
-3.81796
-1.97145
-3.83486
3.80827
1.97866
3.80305
8.53502
2.19848
8.29971
-7.42607
-3.64681
-7.89785
5.7562
-5.98647
2.99195
-2.9951
5.1246
2.39576
-4.96184
-2.61226
5.87526
-3.03619
-2.83906
-13.2423
9.84247
3.3998
-5.5482
-0.912023
0.615838
-5.05433
-2.88407
4.71888
0.973682
10.8162
7.93208
-5.49641
5.72206
6.13753
6.15278
-0.220426
4.03498
-3.64447
4.60885
-0.552163
-4.05669
5.74045
-6.19635
-2.1574
-5.66376
3.50637
-0.190087
1.30075
-1.55036
-2.0198
-0.442606
-1.84472
1.4869
0.899163
1.59632
0.947041
1.64262
-2.62917
0.427391
2.20178
-1.68213
-1.78648
-3.72061
-0.42889
4.1495
5.53565
1.8455
-5.41907
-0.138858
2.7348
-2.66253
-1.20541
-2.5152
1.50631
-2.71172
-3.09236
-2.03517
5.12752
-3.34433
-0.490527
3.28063
0.51681
-3.76929
-2.10864
3.77535
0.30111
-2.93038
5.99883
-3.06845
-4.90184
2.55842
3.49093
4.51274
-4.65205
2.31885
2.33319
-1.16112
5.99351
1.02911
6.02084
-8.94807
5.65196
7.69012
3.73192
-7.86475
0.755178
-8.19289
9.48769
-8.32626
-1.16142
4.76765
4.72004
5.357
5.14341
-3.51233
8.86933
-1.14946
-7.1768
9.34235
-5.61043
5.62711
-11.2375
-10.7705
3.59373
-6.79044
8.36961
-1.57918
-2.29194
-5.41848
9.08238
-0.764416
-8.31796
5.58434
-5.21114
-5.41749
10.6286
-7.96
8.76162
-2.51938
-6.24224
-6.49923
-3.99442
6.61634
1.03683
-9.68295
11.4782
-3.02304
5.77387
0.952663
5.77333
3.91825
-5.95873
2.04049
4.04175
-6.56113
2.35216
-8.3109
-4.84048
9.42817
-4.58769
-7.39724
-6.583
-0.814239
1.96406
9.51416
-6.70376
5.28317
1.42059
3.25583
0.547221
-3.34489
-0.435331
0.316788
4.40817
-4.72496
3.89287
4.00908
3.49149
0.916684
3.81621
2.0333
-3.83207
-0.394994
-3.84118
1.38873
-1.5589
-3.44938
4.83812
-3.87836
0.428979
-2.65347
-3.38439
6.03786
-4.51637
2.89817
3.10066
4.87683
-4.77169
1.3873
-2.40579
-2.3659
2.49106
-4.04996
1.88167
2.95645
4.09194
0.653505
4.75754
4.67063
-7.33099
0.627749
8.0593
-6.72417
1.55721
5.88349
-6.84038
0.257378
-5.92889
1.15846
-6.20692
-5.43303
6.38193
-8.77603
-4.85561
7.97939
0.32032
-7.85815
-0.908889
-3.73567
-1.48116
-3.89474
-1.7981
-3.77081
-5.31042
-1.15194
-4.15849
3.97334
-4.17978
-2.1326
4.48489
0.756296
-4.55375
4.48242
-4.59208
4.42838
0.181598
3.55266
4.28852
1.92143
-2.39155
4.31298
-6.79168
8.99016
-10.4951
3.7034
4.11245
-7.75927
-6.38263
3.59962
2.15658
3.36299
5.81783
-7.21484
1.39701
-6.47355
7.31437
-0.840818
-9.94882
3.47527
-4.13099
2.69292
0.299031
2.66815
0.705166
2.2367
-2.94186
-2.28994
-2.28193
-2.21167
-3.1868
5.39847
0.989476
-3.21905
2.22957
-3.22333
4.2128
-0.219854
-2.99919
4.99819
-2.76149
5.29722
-3.44318
1.85404
3.11376
5.21086
-2.0971
4.08861
-1.69286
1.71045
-3.80755
-1.47635
-2.89187
4.96282
-3.14599
3.57497
-0.237859
3.81283
-4.00685
0.97066
-0.515365
3.49371
3.68332
3.98577
-3.06908
2.66084
-4.35369
-1.14671
-3.70019
-0.743742
-1.20598
-4.96967
6.17566
4.83767
-6.04366
-3.22302
6.00876
-2.78573
5.18044
-3.82501
-1.35543
-2.8851
-3.10137
2.89102
1.14395
6.32439
0.117203
-3.94221
-3.52727
-2.78116
4.22405
0.384806
-2.30518
5.70498
1.68934
-0.388586
0.427623
1.1687
1.47843
-1.05081
0.353985
1.12444
-1.19638
1.98317
0.75164
-2.049
0.204282
-1.45322
2.95954
0.74856
-1.64772
0.596918
2.1621
-2.71426
4.47415
-1.48448
-2.98967
6.63625
1.75812
-3.2426
3.90564
-4.09573
2.54991
-2.9788
-0.69269
-4.78842
-3.63842
-2.22792
4.45749
-3.17054
5.01605
1.36513
-4.87719
6.24232
-3.4166
1.38144
-2.7048
3.45644
-0.796197
-1.90861
2.54814
2.57939
-2.75384
0.238642
-0.205705
2.065
-2.27071
-0.646715
-2.32885
-4.39576
4.69687
-2.17192
4.49078
2.14106
-1.97038
6.46115
1.78615
-3.75653
-3.11569
-3.60622
-1.42333
3.08941
-0.804955
-5.96197
-7.0472
5.86014
0.160693
-8.97014
10.0664
-1.09623
-5.14733
-0.504636
5.27229
-7.25215
0.691028
-4.89999
5.16637
6.19548
6.35617
-8.19324
-0.124724
-4.85211
1.1187
-5.97081
5.83874
-2.76309
6.35681
-6.86254
4.72994
-6.10624
5.19539
-0.775415
5.37866
-3.33818
2.07384
-6.06826
-5.03144
6.9477
-3.54853
7.90036
-4.05706
11.9574
-7.0801
6.9535
5.00392
-1.35248
-5.87047
-6.81112
5.45864
0.142385
5.91571
4.79954
-2.76625
4.40455
2.016
-4.42179
-2.03396
-6.31535
1.89356
-3.21469
-1.76507
3.65863
3.11176
3.65898
1.29272
-3.22365
6.60703
-7.42127
-2.01935
-3.41368
6.78487
-1.32623
3.77748
-7.19116
-2.42945
5.26611
-0.686805
-4.5793
0.625902
-5.48152
2.60319
-8.08471
6.17283
-7.08172
1.27206
-5.40305
-3.28169
-3.4078
-1.38268
-3.2094
-4.60208
3.21941
-1.12681
3.35561
-5.32593
4.63912
-1.98844
5.20784
-3.4114
-0.483338
3.54395
0.884425
6.09227
-0.692063
-5.69057
-0.916829
5.43878
-4.52195
3.30722
-5.66173
-0.222957
3.28028
3.35597
-6.78664
-0.97262
-6.66319
-2.63128
4.78786
3.37748
8.21515
1.00031
5.1574
-0.369542
6.15771
2.99344
2.81035
-3.81258
5.20958
2.36308
6.06648
-0.822255
2.6763
1.84589
1.89483
0.767692
2.21626
1.46705
3.18692
0.245062
-2.03687
3.71794
-6.4991
-0.224273
-5.71136
2.45095
4.66491
-2.21396
4.5101
-4.12529
-0.0118506
2.168
-0.849185
-1.31881
-1.88869
-1.23777
-0.113329
-1.35181
1.94873
1.60773
-1.8354
-0.053295
-0.000329322
-3.63809
2.97913
-2.74049
-0.161103
6.08122
-2.38539
0.114676
-1.00395
-2.21417
-2.65678
2.45249
6.05733
0.403828
2.98888
5.1007
2.99206
0.22581
4.34553
-5.92471
-3.96536
-6.04944
-0.210698
5.06159
1.79985
7.71431
6.80377
5.47753
-1.71362
-9.1349
7.22072
-2.01113
6.3799
-1.8006
-6.28411
6.36693
2.62324
-6.68725
-0.394477
-6.67859
-8.68972
-0.447877
5.087
-5.64439
5.16105
3.6799
0.47859
-2.8252
-0.582596
2.98242
-0.17207
5.98564
-1.65455
-5.97899
7.63355
-3.01035
2.78608
4.93025
0.774724
3.61144
-0.513851
-6.49285
-8.70681
-1.04932
-1.66494
-4.03899
0.11051
-1.71824
4.20356
-1.41748
2.84813
6.21607
6.20422
-1.82069
-4.22297
4.60642
-1.75829
4.44593
)
;

boundaryField
{
    wall-4
    {
        type            calculated;
        value           uniform 0;
    }
    velocity-inlet-5
    {
        type            calculated;
        value           uniform -3.75095;
    }
    velocity-inlet-6
    {
        type            calculated;
        value           uniform -5.62643;
    }
    pressure-outlet-7
    {
        type            calculated;
        value           nonuniform List<scalar> 8(6.66439 6.45107 6.3825 6.63371 6.56372 6.63155 6.55578 6.63063);
    }
    wall-8
    {
        type            calculated;
        value           uniform 0;
    }
    frontAndBackPlanes
    {
        type            empty;
        value           nonuniform List<scalar> 0();
    }
}


// ************************************************************************* //
