/*--------------------------------*- C++ -*----------------------------------*\
  =========                 |
  \\      /  F ield         | OpenFOAM: The Open Source CFD Toolbox
   \\    /   O peration     | Website:  https://openfoam.org
    \\  /    A nd           | Version:  9
     \\/     M anipulation  |
\*---------------------------------------------------------------------------*/
FoamFile
{
    format      ascii;
    class       volVectorField;
    location    "2";
    object      U;
}
// * * * * * * * * * * * * * * * * * * * * * * * * * * * * * * * * * * * * * //

dimensions      [0 1 -1 0 0 0 0];

internalField   nonuniform List<vector> 
918
(
(0.938565 -0.0820877 0)
(0.00835763 2.9653 0)
(-0.103199 1.77475 0)
(0.835346 0.110945 0)
(0.000205812 1.72033 -1.57707e-20)
(-0.0100543 2.94692 -9.25706e-19)
(1.21372 1.64453 5.85273e-19)
(0.532809 0.299699 -1.27757e-20)
(0.973832 -0.00199753 0)
(0.0448873 1.77119 0)
(0.0218873 1.71637 0)
(0.930781 0.0256351 0)
(-0.00539037 2.94673 0)
(0.0190988 2.85065 0)
(-0.087798 2.84125 8.81308e-19)
(-0.0120583 1.69881 -3.43693e-20)
(0.697616 0.147398 1.17566e-18)
(0.257579 2.02614 5.76109e-19)
(0.968034 0.0463508 0)
(0.0397773 1.71754 0)
(0.810826 0.338855 -1.6678e-19)
(0.866235 -0.022288 0)
(0.882692 -0.0281739 0)
(1.01224 0.0457208 0)
(0.842057 0.0535459 0)
(0.00862953 2.79195 0)
(-0.0506463 2.91509 2.0588e-19)
(-0.0285021 1.73655 0)
(-0.0215295 1.70198 0)
(-0.0635824 1.71115 0)
(0.0177472 1.76787 0)
(-0.0164693 1.72139 1.2639e-20)
(-0.0300863 1.7048 0)
(-0.0200456 2.98331 -2.83467e-23)
(-0.0188453 3.0046 7.17445e-19)
(0.0021269 3.00056 0)
(0.97303 -0.00433961 0)
(0.754621 0.97435 2.42264e-19)
(1.1182 1.65616 -5.32849e-19)
(1.28989 1.41707 5.67986e-19)
(0.962613 1.84497 -1.42321e-19)
(1.02754 1.85025 9.11406e-19)
(0.576454 0.307889 1.24673e-20)
(0.560075 0.292052 0)
(1.34608 0.764391 0)
(0.543854 0.33444 4.7824e-20)
(0.479151 0.326814 -4.96234e-20)
(0.970516 -0.018165 0)
(0.991124 -0.000678939 0)
(0.97752 -0.000269932 0)
(0.92893 -0.0753799 0)
(0.978236 -0.00328285 0)
(1.0023 0.0063063 0)
(-0.0268828 1.58534 -6.25842e-19)
(0.00617111 1.82096 0)
(0.0246866 1.81743 0)
(0.00818091 1.77754 0)
(-0.010749 1.75439 0)
(-0.0307927 1.69105 0)
(0.0161613 1.7476 0)
(0.00999258 1.72266 0)
(0.0102605 1.74938 0)
(0.00147549 1.71179 0)
(0.988822 -0.00914264 0)
(0.962737 0.0221072 0)
(0.944815 0.00386575 0)
(0.943745 -0.00552716 0)
(0.938204 -0.0113981 0)
(0.0158979 2.99819 3.41104e-19)
(0.0111187 3.01394 0)
(0.00709513 3.00107 0)
(0.00213153 2.99087 3.56265e-24)
(0.00740292 2.95171 -5.06966e-19)
(-0.0256454 2.98996 0)
(-0.0382581 2.93685 0)
(0.0116567 2.96236 2.59755e-25)
(0.00827018 2.87335 0)
(0.00739871 2.95162 0)
(0.0229422 2.82509 0)
(0.100197 2.99566 0)
(-0.122646 3.03321 0)
(0.0168041 2.92489 -8.17511e-19)
(-0.0782588 2.82785 0)
(-0.013841 1.74931 0)
(-0.00294181 1.73141 3.3919e-20)
(0.00879161 1.68183 -5.41707e-20)
(0.739741 0.172604 -4.12854e-19)
(0.726214 0.139618 -4.07095e-19)
(0.711468 0.224334 -1.20461e-18)
(0.664709 0.202179 -7.69371e-19)
(0.20968 1.35881 0)
(0.345212 2.08411 -6.1569e-19)
(0.483209 2.06241 1.05446e-18)
(0.982138 0.00338004 0)
(0.949936 -0.00104739 0)
(0.982701 -0.00859616 0)
(0.98396 0.0364348 0)
(0.982773 0.0443278 -3.90043e-18)
(1.01321 0.0626357 2.91718e-18)
(0.0120049 1.75098 0)
(0.018785 1.70881 0)
(0.00500324 1.73385 0)
(0.0174936 1.72765 0)
(-0.0128771 1.71826 0)
(0.589664 0.290004 5.79654e-20)
(0.487569 0.433537 0)
(1.01989 0.0359056 0)
(0.982401 0.0100375 0)
(0.945413 0.0109753 0)
(0.897461 0.0497197 0)
(0.901416 0.0185376 0)
(1.11994 -0.0165812 0)
(0.839391 0.0495888 0)
(0.802303 0.0185622 1.86573e-18)
(0.039348 2.83895 -1.06207e-19)
(0.0261147 2.95266 0)
(0.0541692 2.92676 0)
(0.040413 2.80867 0)
(-0.0480992 2.97331 1.53142e-19)
(-0.0348873 2.85154 0)
(-0.0664187 2.96766 -5.98385e-19)
(-0.0714148 2.91369 2.7345e-19)
(0.0310283 1.76698 0)
(0.0060688 1.76784 0)
(-0.0159016 1.72849 -1.55391e-21)
(-0.0175403 1.73811 0)
(0.0189178 1.69462 0)
(0.999229 0.00826288 0)
(0.984793 -0.0132023 0)
(0.957213 -0.00993749 0)
(0.999785 0.00872644 0)
(0.969425 0.0222036 0)
(0.820363 1.06443 -3.09276e-19)
(0.661643 0.948873 0)
(0.818834 1.19038 4.25872e-20)
(0.723472 1.07849 0)
(1.19111 1.39257 -1.40843e-19)
(1.32487 1.15449 1.92407e-19)
(0.598738 2.07438 0)
(0.770334 2.02084 0)
(0.779851 2.00394 0)
(0.52525 1.2172 -3.75275e-19)
(0.601099 0.311462 0)
(0.593332 0.249454 1.98553e-19)
(1.20828 1.17186 0)
(1.25928 0.921153 0)
(1.35683 0.921243 -1.30087e-19)
(1.28507 0.73744 0)
(1.3637 0.52547 6.44475e-20)
(0.9927 0.017506 0)
(0.994721 -0.00739133 0)
(0.978355 -0.0170962 0)
(0.993902 0.00706045 0)
(0.99337 -0.0116558 0)
(0.960469 0.0133996 0)
(0.979321 0.00212101 0)
(0.962973 -0.000671572 0)
(0.981802 0.00518468 0)
(-0.0193799 1.64063 3.27453e-19)
(0.0298885 1.58789 0)
(0.00527913 1.64337 5.5714e-19)
(0.026231 1.63802 -4.72134e-19)
(0.165055 1.98854 -4.80788e-19)
(0.0161261 1.88708 0)
(0.0754833 1.90313 0)
(-0.0199873 1.78744 0)
(-0.0334338 1.74556 0)
(-0.0132053 1.73449 -1.73254e-21)
(0.0141638 1.69264 0)
(-0.00320044 1.73183 -9.72894e-20)
(0.0248179 1.71192 1.69883e-19)
(0.018428 1.77914 0)
(0.0199971 1.7404 0)
(0.0226249 1.70366 0)
(0.000831754 1.73666 0)
(-0.00122409 1.71365 0)
(1.02549 0.0172663 0)
(1.0129 0.0142615 0)
(1.01262 -0.00187687 0)
(0.974833 -0.0042385 0)
(0.961706 -0.0150952 0)
(0.983602 0.00513652 0)
(0.960128 0.0179933 0)
(0.935234 -0.00102376 0)
(0.0564129 3.03379 -2.37372e-21)
(0.0490642 3.03986 0)
(-0.0271037 2.98943 0)
(-0.0243644 2.94476 0)
(0.631026 3.1713 0)
(0.889848 2.54623 6.11451e-19)
(-0.000800731 2.92535 0)
(-0.0535057 2.84886 0)
(0.0012116 1.76209 0)
(-0.00585371 1.72215 0)
(-0.0043974 1.74786 0)
(0.00317689 1.77277 -5.95632e-21)
(-0.0260425 1.76878 0)
(0.00389756 1.76808 0)
(0.0207814 1.70272 1.41937e-20)
(0.0259323 1.74525 6.27499e-20)
(0.00396095 1.73784 5.5072e-20)
(0.0270213 1.70836 0)
(0.765432 0.134376 6.47015e-19)
(0.740615 0.0756122 -6.2925e-19)
(0.185238 1.40045 0)
(0.238179 1.32466 -2.31076e-19)
(0.146243 1.47437 -6.71159e-19)
(0.133875 1.43869 6.69428e-19)
(0.980142 -0.0162269 0)
(0.982377 -0.0164801 0)
(0.983386 -0.00729739 0)
(0.955401 0.0145031 0)
(-0.00410921 1.74519 0)
(0.0174366 1.75491 0)
(-0.0109342 1.73194 0)
(0.517294 0.328412 3.68854e-19)
(0.547473 0.333793 -2.89469e-19)
(0.466809 0.342541 0)
(1.19715 0.0928784 4.8234e-20)
(1.22209 0.0400524 0)
(1.13008 0.0415952 0)
(1.06107 0.00731772 0)
(0.784441 0.102885 0)
(0.823863 0.0529243 -2.96812e-18)
(0.760334 0.0392417 1.11635e-18)
(0.0549522 2.9507 1.05324e-20)
(0.0318718 2.83994 3.64912e-20)
(0.0520781 3.03993 -4.82316e-21)
(0.0381477 3.03052 2.25054e-19)
(-0.0372887 3.00376 9.20152e-21)
(-0.0468039 2.95645 -3.33885e-23)
(-0.0257038 3.01542 -1.68174e-19)
(-0.00413339 3.00948 1.23371e-19)
(0.0217403 3.02143 -2.36039e-19)
(1.01427 0.0113859 0)
(0.996703 0.023578 0)
(0.970813 0.0361783 0)
(0.992906 -0.0147613 0)
(0.979842 -0.00287001 0)
(0.957082 -0.00562915 0)
(0.979436 -0.00518028 0)
(0.991501 0.00964045 0)
(0.964539 0.0153915 0)
(0.76116 1.1181 -6.46278e-20)
(0.581614 1.16301 0)
(0.67749 1.1827 1.10304e-19)
(0.684968 1.29105 8.17497e-19)
(0.743469 1.24546 -4.84071e-19)
(0.718848 1.13262 9.15963e-19)
(0.481913 1.30508 1.77676e-18)
(0.515444 1.23622 3.45412e-19)
(0.681023 0.237235 8.13344e-19)
(0.649092 0.277583 2.00065e-19)
(0.648264 0.228029 3.8649e-19)
(1.2766 0.511612 -8.20563e-20)
(1.31992 0.3657 -1.4628e-19)
(0.0129183 1.69148 2.14648e-19)
(0.0161702 1.67403 0)
(1.07368 0.0267444 0)
(1.05393 0.00626598 0)
(1.02485 -0.0097897 0)
(0.0587001 3.05503 0)
(0.0139935 2.99238 1.91113e-19)
(-0.00813112 3.0012 0)
(-0.00367719 2.92254 -1.83216e-19)
(0.0539352 3.08669 4.06731e-20)
(0.0458383 3.06847 0)
(0.659789 1.34826 -9.0538e-20)
(0.884366 1.83075 1.69053e-19)
(0.591282 1.43714 -7.04805e-19)
(0.0259652 2.95906 8.60096e-20)
(-0.00368699 2.95649 0)
(-0.0118698 2.85143 0)
(-2.52161e-05 1.76275 -5.9073e-21)
(-0.0139255 1.72355 -1.60578e-19)
(-0.0434187 1.71345 1.17615e-20)
(0.23392 1.39724 7.1646e-19)
(0.312734 1.32866 -4.8596e-19)
(0.024743 1.61873 4.73136e-19)
(0.0753635 1.53964 -5.79135e-19)
(0.0820993 1.52657 7.01789e-20)
(0.00548912 3.10988 -1.14997e-19)
(0.0185038 3.11372 1.25088e-19)
(-0.0327728 2.94789 1.03277e-19)
(0.011454 2.94638 -4.3865e-20)
(-0.00170622 2.84214 -1.05201e-19)
(0.0265404 3.10009 -2.3777e-19)
(0.0279654 3.11252 2.29712e-19)
(0.541003 1.31838 0)
(0.63567 1.31076 -1.81419e-18)
(0.60344 1.21094 8.10874e-19)
(0.446755 1.33945 9.84333e-19)
(0.448412 1.28373 -1.53312e-18)
(1.26129 0.167178 1.52649e-19)
(1.28506 0.352726 0)
(1.30718 0.171993 -9.66491e-20)
(0.00478335 1.70481 -2.23494e-21)
(-0.013377 1.70439 0)
(-0.0129379 1.66745 0)
(0.310205 1.38695 -2.50786e-19)
(0.362871 1.35321 -6.16867e-19)
(0.384704 1.29808 1.12917e-18)
(0.999195 -0.0381793 0)
(1.03181 -0.0684462 7.2326e-19)
(0.0217837 1.76363 0)
(-0.00208037 1.76812 0)
(1.03897 0.0072232 2.32417e-20)
(0.956722 0.00867763 1.51007e-18)
(0.00547279 1.7893 7.45593e-21)
(0.03974 1.801 0)
(-0.00314346 3.09176 -3.22983e-19)
(0.0879406 3.05966 0)
(1.1137 0.666552 -1.65149e-19)
(1.01747 -0.0126432 -1.29752e-20)
(1.00736 0.0278201 0)
(1.01993 -0.00179672 -5.90869e-21)
(0.0867725 1.8644 0)
(0.0538272 1.70417 0)
(-0.0276229 1.77594 0)
(0.0305469 1.75088 1.31001e-19)
(-0.0117812 1.77348 7.02175e-20)
(0.986715 -0.00716958 5.61275e-21)
(1.0544 0.0458556 0)
(1.06842 0.0329852 0)
(0.0087595 1.74731 0)
(0.0156043 1.77436 0)
(-0.0254668 1.77543 0)
(0.239317 1.95406 -1.65255e-19)
(0.964904 -0.0413685 0)
(0.982512 -0.0433473 0)
(1.00449 0.00544132 9.18172e-19)
(1.03609 -0.00445233 -1.09206e-18)
(1.05654 -0.0288713 0)
(-0.00521099 1.74047 0)
(0.0244261 1.74815 0)
(0.00484864 1.73673 0)
(-0.0188762 1.78065 0)
(-0.00593607 1.76982 0)
(-0.00428841 1.7644 0)
(1.02173 0.00460226 0)
(1.01888 -0.018646 -8.64773e-21)
(0.816324 1.65822 2.62216e-19)
(1.00303 -0.0269035 -9.11673e-19)
(1.05373 0.0269568 1.11372e-18)
(1.04662 0.0106013 0)
(0.999891 -0.00388956 8.77614e-19)
(0.989644 0.0255009 -1.1083e-18)
(1.0023 0.019573 0)
(0.019326 1.78299 0)
(0.0121477 1.76215 5.67481e-20)
(0.00601177 1.76912 -4.09354e-20)
(1.17045 0.293263 1.00916e-18)
(1.10243 0.0708005 0)
(0.0295282 3.14648 1.09855e-19)
(0.0361645 2.92383 -4.98721e-21)
(-0.0173322 3.17904 -6.15066e-19)
(0.00907558 3.12139 2.18156e-19)
(0.00478421 3.04368 0)
(-0.00655869 3.1005 -7.59848e-20)
(-0.0112279 3.1303 -9.67675e-20)
(0.0164411 3.10976 1.18873e-19)
(-0.00705826 3.10193 0)
(0.672125 0.304365 0)
(0.55973 0.381485 0)
(1.07816 0.73954 4.42814e-19)
(1.13881 0.897588 -5.15378e-19)
(1.08727 0.61369 0)
(1.14722 0.579836 0)
(1.02764 0.00400172 -1.70673e-18)
(1.00516 -0.0101399 2.13007e-18)
(1.02082 0.00796565 0)
(1.01135 -0.0307218 0)
(0.974966 0.0332639 0)
(1.01698 -0.0128963 0)
(1.0072 -0.00585059 0)
(1.02377 -0.0446692 0)
(1.01782 -0.038356 0)
(1.00179 0.0106462 0)
(0.0704304 1.8665 0)
(0.021986 1.85286 0)
(0.103992 1.87134 0)
(0.114211 1.91248 0)
(0.0452765 1.64078 0)
(0.0535602 1.67186 -3.22175e-19)
(0.0782335 1.71732 0)
(0.0792863 1.71286 1.906e-19)
(0.0166749 1.74288 -1.84642e-19)
(-0.0263354 1.78302 0)
(-0.00485241 1.77307 0)
(-0.0165607 1.78484 0)
(-0.0253495 1.79752 0)
(-0.00110637 1.73043 -5.30359e-20)
(-0.00152363 1.74255 1.07146e-19)
(0.0411728 1.77877 8.24222e-20)
(0.0385217 1.77489 0)
(-0.00986267 1.77401 -1.83684e-19)
(0.00926331 1.76224 -1.30175e-19)
(-0.00759736 1.74618 3.55913e-20)
(0.00421124 1.70376 -1.3401e-19)
(0.0501059 1.76087 -9.94724e-20)
(0.990448 -0.0134332 1.50324e-18)
(1.00501 -0.0345345 -1.95539e-18)
(0.992822 0.0128001 -1.57062e-18)
(0.935647 -0.00496166 2.05552e-18)
(1.03786 -0.00850974 0)
(1.0525 -0.00948647 0)
(1.03364 0.0127391 0)
(1.06081 0.0410548 0)
(1.04873 0.0139064 0)
(1.07146 0.0501886 0)
(1.07459 0.0420537 0)
(1.0744 0.035777 0)
(-0.0646778 1.75181 -4.31219e-21)
(0.0525935 1.72907 0)
(-0.0256134 1.74088 0)
(-0.026286 1.76833 4.01735e-20)
(-0.0302837 1.78661 -1.21178e-21)
(-0.000968027 1.77957 -2.00849e-20)
(-0.00669512 1.76885 2.06629e-20)
(0.00512774 1.76977 0)
(-0.013563 1.76755 0)
(0.00689166 1.76559 0)
(-0.00559312 1.77624 0)
(-0.00165941 1.77988 0)
(0.440252 1.93886 2.23269e-19)
(0.423758 1.99012 1.32952e-19)
(0.238364 1.48676 -1.78121e-19)
(0.197843 1.54074 4.52755e-19)
(0.320572 1.67737 1.04786e-19)
(1.01924 -0.00172021 0)
(0.996248 -0.00049661 0)
(1.02055 0.0329888 0)
(1.00251 -0.0267751 0)
(1.0023 -0.00948877 0)
(0.95377 0.0213618 0)
(0.974245 0.0826984 0)
(1.02187 0.0819847 0)
(1.00152 -0.0212216 1.61672e-18)
(1.01551 -0.00685119 -2.03627e-18)
(1.01781 -0.0111986 -1.55927e-18)
(0.997729 0.00252536 2.03407e-18)
(0.812136 1.70702 0)
(0.739231 1.75325 1.80303e-19)
(0.905887 1.52093 2.97543e-20)
(0.939661 1.52355 -3.94643e-20)
(0.962848 1.60467 9.49823e-19)
(0.858448 0.115172 6.8619e-19)
(1.11831 0.10322 0)
(1.14414 0.173423 -8.40139e-19)
(1.13095 0.114457 -3.5346e-20)
(0.954823 0.154054 0)
(-0.0812282 3.18033 -4.88219e-19)
(0.0508558 3.09342 4.44811e-19)
(0.0762825 2.69699 -6.48768e-20)
(0.469916 0.697579 2.96615e-19)
(0.0194517 3.06221 -4.15444e-19)
(-0.0119822 3.08431 0)
(0.0558121 3.02579 5.15346e-19)
(-0.114757 3.07258 1.1601e-18)
(-0.11361 3.0883 0)
(-0.00697523 3.11019 -9.8657e-22)
(0.00659582 3.11432 -3.84055e-20)
(-0.00730691 3.10374 5.02422e-20)
(0.00189723 3.099 0)
(0.0092865 3.11612 0)
(0.928633 1.84314 0)
(0.107426 0.890602 -5.33134e-19)
(1.09461 1.17135 1.46249e-19)
(0.931332 1.31985 0)
(0.764759 1.1372 -2.41064e-19)
(1.00614 1.07532 2.65752e-20)
(0.518306 0.163702 1.47693e-19)
(0.662297 0.311104 -1.33093e-20)
(0.656692 0.320799 4.16893e-19)
(0.556884 0.378545 1.88737e-20)
(0.53283 0.365907 -7.05517e-19)
(0.663354 0.343824 0)
(0.645286 0.404087 5.97668e-19)
(0.642275 0.380826 0)
(0.560725 0.387855 0)
(0.581604 0.349454 0)
(0.616079 0.709418 5.39498e-19)
(1.18148 0.296342 -8.1088e-19)
(1.17246 0.364136 0)
(1.19507 0.3292 0)
(0.775537 0.226626 6.64241e-19)
(0.656371 0.577777 -4.14236e-19)
(0.622402 0.501169 7.74277e-19)
(0.83541 0.411339 -8.91394e-19)
(1.0014 0.0286069 1.09936e-18)
(1.01034 0.0413339 -1.16794e-18)
(1.0073 0.0507954 0)
(1.01927 -0.0108215 0)
(1.0186 -0.0412043 -1.06564e-18)
(1.01744 -0.0074312 1.05527e-18)
(0.990348 0.0046513 0)
(0.987638 -0.0083033 0)
(1.01739 -0.00993027 0)
(1.01082 -0.00795087 0)
(1.00196 -0.0263651 0)
(0.992696 -0.0197943 0)
(0.016162 1.84077 0)
(0.0358235 1.82198 0)
(0.0420669 1.8094 2.70895e-20)
(0.22774 1.93642 7.62133e-20)
(0.126067 1.92375 1.31708e-19)
(0.119026 1.92709 -2.31332e-19)
(0.0656078 1.80613 0)
(0.193495 1.75252 -1.56498e-19)
(0.163162 1.79702 0)
(0.290725 1.7072 -1.51969e-19)
(0.266772 1.64465 5.19779e-19)
(0.185246 1.7568 1.38321e-19)
(0.216526 1.89856 1.50988e-20)
(0.160087 1.78056 -1.21656e-20)
(0.336179 1.79105 -1.39528e-19)
(0.215849 1.72757 0)
(0.244235 1.7148 1.22566e-19)
(0.00915953 1.72287 -6.56105e-20)
(-0.000402298 1.72565 0)
(0.0450052 1.70666 1.83685e-19)
(-0.00546323 1.71554 0)
(0.0631834 1.73329 -2.19716e-19)
(0.0305904 1.7347 0)
(0.0389867 1.76632 -6.5756e-20)
(0.0281432 1.77689 0)
(0.0528572 1.76089 0)
(0.0518125 1.76978 7.4811e-20)
(0.0193372 1.72997 -1.25521e-20)
(0.0342995 1.75887 2.16928e-19)
(0.0326051 1.73962 1.81418e-21)
(0.0506204 1.69586 4.70093e-20)
(0.00615089 1.71957 2.68301e-20)
(0.0283883 1.76077 0)
(0.00067274 1.76488 0)
(0.00185266 1.75001 1.49178e-19)
(-0.0153774 1.74984 1.48978e-19)
(-0.0190801 1.77531 -1.84668e-19)
(0.025355 1.76237 0)
(-0.0195743 1.74774 -1.06608e-19)
(-0.0188196 1.76047 2.99468e-20)
(0.0165111 1.78632 -9.73947e-21)
(0.0559228 1.73987 -5.67288e-20)
(0.00575674 1.718 -3.80075e-20)
(-0.0224067 1.74892 1.45587e-19)
(1.00083 0.0255335 -1.11534e-18)
(0.996092 0.00917602 1.05423e-18)
(0.996226 0.0427195 0)
(0.973236 -0.00899086 1.43214e-18)
(0.923222 0.0793588 -1.62879e-18)
(0.927732 0.0636695 1.80271e-18)
(0.965885 0.00123952 -1.81966e-19)
(1.04147 -0.0260319 0)
(1.03726 -0.0254914 1.00274e-18)
(1.03176 -0.0343335 -1.01816e-18)
(0.975627 0.0263655 -5.85186e-20)
(1.00467 0.0310655 4.85473e-19)
(0.980052 0.0648117 0)
(0.988252 0.0543416 -1.78367e-19)
(1.00009 0.0515739 0)
(0.988996 0.0490869 0)
(1.01272 0.0552303 0)
(0.996157 0.0262964 0)
(1.02968 0.0590253 3.55985e-19)
(1.01054 0.0129852 -8.25496e-19)
(0.950501 0.000650238 -3.6971e-19)
(0.991575 0.02122 -4.17425e-19)
(1.00602 0.0648371 8.04612e-19)
(1.03645 0.0668688 0)
(1.00271 0.045662 0)
(-0.00134818 1.77261 -7.2582e-21)
(0.0408936 1.7232 -3.38356e-21)
(-0.0151329 1.77061 0)
(0.0163072 1.78263 7.53151e-21)
(0.0139174 1.75901 7.27341e-21)
(0.0274607 1.7541 -1.3648e-20)
(0.0028272 1.77734 1.17593e-19)
(0.0433201 1.76737 -5.51658e-21)
(0.0488292 1.73349 2.96711e-20)
(-0.0523756 1.78504 -5.15225e-20)
(-0.0291481 1.78279 6.4637e-20)
(0.043487 1.74749 -5.13642e-21)
(-0.0174805 1.71857 3.34851e-20)
(0.442806 1.81131 -7.16278e-20)
(0.406377 1.74618 1.775e-19)
(0.728147 1.80615 -1.70633e-19)
(0.598924 1.90075 -1.33077e-19)
(0.632931 1.87698 0)
(0.283702 1.48678 1.85706e-19)
(0.35099 1.47307 2.45254e-19)
(0.211397 1.52425 4.37406e-20)
(0.277416 1.53951 -6.20035e-19)
(0.268735 1.50468 5.72962e-19)
(0.258785 1.50961 0)
(0.210736 1.5061 -3.81208e-19)
(0.104337 1.60878 8.29933e-19)
(0.189788 1.60909 -1.51257e-20)
(0.104969 1.61301 -1.08434e-18)
(0.551346 1.46057 1.0991e-18)
(0.478965 1.46085 0)
(1.00969 0.0180391 3.50335e-20)
(1.0297 0.0282954 -2.95665e-20)
(0.985174 -0.0622174 -5.45557e-19)
(1.00267 -0.00438829 5.47016e-19)
(0.993974 0.0446047 0)
(0.731116 1.6418 0)
(0.651124 1.54222 0)
(0.822141 1.33992 0)
(0.598932 1.44794 0)
(0.960607 1.57346 4.21294e-20)
(0.934641 1.53699 0)
(0.623406 1.56516 7.69301e-21)
(0.480139 1.53161 0)
(0.550372 1.51343 -7.80497e-19)
(0.562603 1.52029 4.91272e-19)
(0.853993 0.129241 0)
(0.80859 0.134401 1.90867e-19)
(0.889689 0.0865966 1.10615e-18)
(0.853859 0.110559 -4.00786e-19)
(0.846272 0.104904 -1.35449e-18)
(0.995072 0.184355 -1.17998e-18)
(0.894043 0.283154 -3.05771e-20)
(0.833724 0.268116 1.00115e-18)
(0.925413 0.193872 9.42006e-19)
(0.894139 0.132339 -1.51173e-18)
(0.868058 0.221939 1.87198e-19)
(0.790715 0.271389 -4.3529e-19)
(0.857316 0.232398 0)
(0.951391 0.14306 7.33715e-19)
(0.954857 0.170519 0)
(0.947147 0.221847 0)
(1.03858 0.15997 4.0002e-19)
(0.962871 0.199672 -4.41844e-21)
(0.958597 0.172762 -2.26361e-19)
(0.994195 0.174036 0)
(1.00376 0.0567239 7.83229e-19)
(0.998447 0.0181411 9.90286e-19)
(1.01275 0.0545111 -7.51128e-19)
(1.00435 0.0647104 -6.75931e-19)
(0.958953 0.0411004 -1.0173e-18)
(0.948269 0.139609 0)
(0.963959 0.0171721 0)
(0.918488 0.0823421 -6.40812e-19)
(0.90542 0.0441393 2.41655e-19)
(1.01244 0.0847055 8.98648e-19)
(1.01147 0.107657 -1.1154e-18)
(0.972357 0.120587 9.77523e-19)
(0.94769 0.140134 0)
(0.976707 0.0842569 0)
(0.977296 0.0681389 -4.50332e-19)
(0.991945 0.077185 -7.4436e-19)
(0.59777 1.57887 2.99167e-19)
(0.577909 1.63786 -3.75936e-19)
(0.792704 1.75233 -4.69573e-19)
(0.805656 2.08556 6.6645e-20)
(0.984713 1.71377 -8.39809e-19)
(0.971331 1.83281 7.27407e-20)
(1.0328 1.68743 -7.55e-21)
(0.858721 1.96582 -3.26358e-19)
(0.851336 1.84693 6.2313e-19)
(0.791667 2.30095 -2.69323e-20)
(0.96467 2.02756 3.28592e-20)
(0.947836 2.09155 0)
(0.207631 1.10982 -7.67721e-20)
(-0.355451 2.02125 -4.25676e-19)
(0.514928 0.240831 7.87544e-20)
(0.164553 0.491595 -2.86238e-19)
(0.508853 0.377696 3.88956e-19)
(0.477018 0.363923 -6.49376e-19)
(0.435646 0.301123 4.37096e-19)
(0.519786 0.337439 -6.70406e-20)
(0.498798 0.329652 3.05489e-19)
(0.772483 0.265054 -3.88989e-19)
(0.682207 0.318733 0)
(0.709213 0.257047 9.2949e-21)
(0.550401 0.472278 3.27759e-19)
(0.523012 0.466733 -1.18335e-18)
(0.474924 0.380188 -4.84039e-20)
(0.502753 0.402322 0)
(0.38995 0.951089 5.38576e-19)
(0.691853 0.934603 6.31031e-19)
(0.589788 0.986871 -7.31263e-19)
(0.688631 0.940903 -2.5731e-19)
(0.866708 0.923115 -8.08309e-20)
(0.855914 0.968887 8.16463e-20)
(0.749507 0.645591 -9.07481e-19)
(0.772168 0.806124 2.42064e-19)
(0.904872 0.821765 0)
(0.861789 0.769483 -3.25117e-19)
(0.888995 0.325283 2.84006e-19)
(1.04282 0.319125 4.58518e-19)
(1.04791 0.246616 4.76258e-19)
(0.882683 0.417964 -5.80843e-19)
(1.02929 0.378035 0)
(0.998046 0.39052 0)
(0.808924 0.374715 1.41251e-20)
(0.757514 0.285795 0)
(0.748942 0.293699 4.55675e-19)
(0.885165 0.267068 -2.75747e-20)
(0.851864 0.429738 2.5118e-18)
(0.77104 0.501367 6.72948e-19)
(0.801316 0.46618 -6.44086e-19)
(0.732862 0.390025 6.75871e-19)
(0.709607 0.436572 3.85413e-19)
(0.660634 0.42025 -3.7212e-19)
(0.978737 0.0548675 8.77859e-19)
(0.98568 -0.0421777 0)
(1.01871 -0.00881538 5.85724e-19)
(0.959479 0.0373244 -1.3046e-18)
(1.01431 -0.0174906 6.32617e-19)
(1.00962 0.0455397 -1.3387e-18)
(1.01457 -0.00450779 0)
(0.983274 -0.0340766 -2.77765e-19)
(1.01064 0.0445305 7.1875e-19)
(0.975401 0.0152316 -3.78723e-19)
(0.969436 -0.0408557 2.68061e-19)
(0.0176412 1.81476 0)
(0.0647471 1.7627 0)
(0.0401324 1.80358 0)
(0.0303933 1.8168 0)
(0.0777549 1.77363 1.6973e-19)
(0.0803232 1.7708 -8.7356e-20)
(0.0840281 1.7535 -4.54778e-20)
(0.0839332 1.75503 -4.55451e-20)
(0.0356598 1.73469 -1.72405e-19)
(0.0461886 1.7632 1.2738e-19)
(0.0469889 1.78828 -3.46216e-20)
(0.0416588 1.78917 -6.2723e-20)
(0.0140227 1.75878 -1.11943e-20)
(0.016182 1.77574 -1.67559e-20)
(0.0952651 1.71152 -1.89074e-19)
(0.117661 1.72646 0)
(0.12218 1.71172 1.35241e-19)
(0.104608 1.78668 8.9021e-20)
(0.142207 1.67229 -1.06261e-19)
(0.144414 1.62245 0)
(0.159091 1.60082 -6.27199e-19)
(0.214864 1.6173 4.33764e-19)
(0.123434 1.66988 -2.67976e-19)
(0.124314 1.67314 1.58267e-19)
(0.0622481 1.60064 0)
(0.0229138 1.72728 -1.58854e-19)
(0.0216466 1.74165 -2.22612e-19)
(-0.00520374 1.70314 0)
(0.0329843 1.76561 -2.25549e-21)
(0.0118825 1.73872 7.77056e-20)
(-0.00985898 1.78891 4.14435e-21)
(0.0123978 1.77961 -7.24387e-20)
(0.00555965 1.77044 -6.42817e-21)
(-0.0179143 1.74388 5.86458e-20)
(0.0355956 1.77811 0)
(-0.00679942 1.79894 0)
(0.0111924 1.76626 4.20559e-20)
(-0.00180212 1.76993 -1.36775e-20)
(-0.018121 1.79824 0)
(-0.0312404 1.77558 2.74569e-20)
(-0.0213642 1.76453 -5.79689e-20)
(0.959676 0.0707355 0)
(1.0295 0.0944644 -9.36196e-20)
(1.00931 0.00302296 -6.21686e-19)
(0.947596 0.0033915 0)
(1.00029 -8.78134e-06 0)
(1.02737 -0.0553255 -3.86045e-20)
(0.959755 -0.0314989 1.08813e-18)
(0.99257 -0.006382 1.27606e-18)
(0.984357 0.0135484 0)
(1.00052 0.000526157 0)
(0.989247 -0.0122067 6.46252e-19)
(0.998593 0.0230656 0)
(0.992072 0.0270817 0)
(-0.0358575 1.78776 0)
(-0.0118985 1.69954 1.27341e-20)
(-0.0346052 1.75982 2.03653e-20)
(-0.0146878 1.75684 0)
(0.0299415 1.67324 3.03149e-20)
(0.049662 1.74889 3.23724e-22)
(0.0139146 1.78798 0)
(0.430724 1.66726 0)
(0.348284 1.68777 -3.77891e-19)
(0.381508 1.65869 0)
(0.438707 1.76199 3.58371e-19)
(0.484601 1.78968 0)
(0.464045 1.79115 -1.14715e-19)
(0.618374 1.50712 -2.30958e-20)
(0.581924 1.46539 -1.27543e-18)
(0.630674 1.44839 1.61225e-18)
(0.52518 1.44825 2.82417e-19)
(0.532517 1.50061 0)
(0.541885 1.49868 0)
(0.556434 1.46442 0)
(0.541349 1.44858 -1.03656e-18)
(0.372616 1.52573 -5.74184e-19)
(0.427698 1.49273 -1.43308e-19)
(0.461294 1.50247 1.17882e-19)
(0.379339 1.48492 0)
(0.44903 1.48106 0)
(0.409223 1.48502 -3.00957e-19)
(0.419009 1.48308 0)
(0.475165 1.49642 0)
(0.328221 1.47755 -7.64342e-19)
(0.369367 1.2631 -5.48069e-20)
(0.584894 1.57734 0)
(0.437796 1.6256 1.21961e-18)
(0.650466 1.14101 -2.37278e-19)
(0.749996 1.19488 0)
(0.70895 1.1639 3.77064e-19)
(0.428075 1.40605 0)
(0.461538 1.24562 0)
(0.824774 1.59987 -4.61673e-19)
(0.761478 1.65897 -3.62033e-19)
(0.660562 1.60773 6.46306e-19)
(0.670593 1.59285 -1.989e-19)
(0.794774 1.53579 0)
(0.721436 1.51546 2.6483e-19)
(0.894351 1.51654 -3.94347e-19)
(0.833023 1.50312 -2.24685e-20)
(0.589131 1.56454 0)
(0.582285 1.60182 -2.56784e-19)
(0.596229 1.5871 0)
(0.824508 0.203462 0)
(0.817722 0.157478 0)
(0.762088 0.198737 0)
(0.81425 0.224819 -7.28534e-19)
(0.770903 0.226026 4.0874e-19)
(0.924435 0.0183818 -4.96515e-19)
(0.922112 0.074792 0)
(0.881084 0.0689584 2.1573e-19)
(0.856239 0.0609869 8.73086e-19)
(0.873839 0.024665 -5.43968e-19)
(0.667338 2.53657 -3.34639e-19)
(0.703384 2.44197 0)
(0.69492 2.68382 -1.0945e-18)
(0.153901 2.91175 8.49495e-19)
(0.19969 2.55108 1.14962e-20)
(-0.130184 1.50178 6.75538e-19)
(0.0483115 1.63958 0)
(-0.241745 0.605781 -2.65903e-20)
(-0.0571918 0.723988 8.59303e-19)
(0.171884 0.129548 -5.3526e-20)
(0.42495 0.409232 3.07127e-21)
(0.557306 0.458921 3.61269e-19)
(0.567652 0.46479 0)
(0.343824 0.564165 0)
(0.364606 0.485301 0)
(0.854728 0.663622 2.2842e-19)
(0.775163 0.526448 -6.52377e-19)
(0.815505 0.608789 5.6835e-19)
(0.844302 0.494695 -5.14862e-19)
(1.06135 0.497213 0)
(1.00589 0.608931 -1.60928e-19)
(0.746507 0.349461 -9.09775e-19)
(0.731399 0.337346 -1.19375e-18)
(0.658989 0.42208 7.15133e-19)
(0.704557 0.351813 -6.97312e-19)
(0.755629 0.303216 -5.63763e-19)
(0.73655 0.32308 6.90661e-19)
(1.01827 -0.00560913 -6.60658e-19)
(1.02598 0.00542666 1.37296e-18)
(1.0097 0.0621741 8.26881e-19)
(1.02114 0.0226102 -9.97203e-19)
(0.925653 0.00800578 0)
(0.912676 -0.00557749 -1.72022e-18)
(0.0595101 1.73787 4.37208e-20)
(0.0308928 1.74242 0)
(0.0498295 1.76269 2.885e-19)
(0.047655 1.76756 -2.60703e-19)
(0.0367014 1.69746 8.19545e-20)
(0.0442752 1.71648 0)
(0.0744986 1.76503 0)
(0.0148363 1.79479 -6.63492e-21)
(-0.00865578 1.66921 6.12858e-21)
(0.0135529 1.66178 8.58967e-21)
(0.0284239 1.76077 -3.46702e-20)
(0.0600968 1.7406 3.01671e-20)
(0.520531 1.60494 -8.13925e-19)
(0.502378 1.61683 8.71197e-19)
(0.507924 1.68769 -2.46402e-19)
(0.511355 1.64912 3.60847e-20)
(0.712825 1.63966 0)
(0.552141 1.77233 -1.76047e-20)
(0.588755 1.73961 1.67803e-20)
(0.551228 1.75027 2.46153e-19)
(0.59875 1.67201 0)
(0.626046 1.59649 0)
(0.39584 1.51143 8.40277e-19)
(0.302896 1.48672 1.37091e-18)
(0.36599 1.47665 -9.27595e-19)
(0.253367 1.50986 -1.59953e-19)
(0.334595 1.51394 3.04793e-19)
(0.237208 1.49764 -7.46085e-19)
(0.686922 1.47413 -8.58972e-19)
(0.785278 1.49275 0)
(0.746545 1.47215 -8.73117e-19)
(0.67045 1.49091 0)
(0.661867 1.48323 0)
(-0.107684 2.27007 -3.48995e-19)
(0.418051 2.15926 -2.00023e-19)
(0.332475 2.32011 2.4574e-19)
(-0.405835 1.62464 0)
(-0.487205 1.38298 -2.35594e-19)
(-0.338287 1.48195 -5.44223e-19)
(-0.227461 2.37782 0)
(-0.315029 2.57615 -7.09096e-21)
(-0.288135 2.75532 0)
(0.380981 0.713405 -1.13331e-18)
(0.591399 0.80697 1.44295e-18)
(0.632247 0.687362 -1.35744e-18)
(0.373968 0.604016 -1.25799e-19)
(0.525859 0.545656 -4.83037e-19)
(0.500915 2.08509 1.49203e-19)
(0.579872 1.89904 -5.3853e-19)
(0.223159 2.05081 1.21392e-18)
(0.38811 1.90083 -8.57163e-19)
(0.550236 1.70291 -8.47935e-19)
(0.632739 1.78843 -1.51546e-19)
(0.646244 1.76173 6.80746e-19)
(0.528551 1.88546 5.19064e-20)
(0.500898 1.76739 3.72383e-19)
)
;

boundaryField
{
    wall-4
    {
        type            noSlip;
    }
    velocity-inlet-5
    {
        type            fixedValue;
        value           uniform (1 0 0);
    }
    velocity-inlet-6
    {
        type            fixedValue;
        value           uniform (0 3 0);
    }
    pressure-outlet-7
    {
        type            zeroGradient;
    }
    wall-8
    {
        type            noSlip;
    }
    frontAndBackPlanes
    {
        type            empty;
    }
}


// ************************************************************************* //
