/*--------------------------------*- C++ -*----------------------------------*\
  =========                 |
  \\      /  F ield         | OpenFOAM: The Open Source CFD Toolbox
   \\    /   O peration     | Website:  https://openfoam.org
    \\  /    A nd           | Version:  9
     \\/     M anipulation  |
\*---------------------------------------------------------------------------*/
FoamFile
{
    format      ascii;
    class       volScalarField;
    location    "5";
    object      p;
}
// * * * * * * * * * * * * * * * * * * * * * * * * * * * * * * * * * * * * * //

dimensions      [0 2 -2 0 0 0 0];

internalField   nonuniform List<scalar> 
918
(
0.241641
1.04855
0.00655719
0.242435
0.00106672
1.01547
-0.690371
0.38605
0.224441
-0.102768
0.0250921
0.207675
0.879504
0.645686
-1.5136
0.0229939
0.353126
-0.772303
0.204795
0.0144882
0.612217
0.235449
0.233772
0.21187
0.260752
0.670699
0.759753
0.0053952
0.00169755
0.00573491
-0.00102596
0.00140863
0.0084761
0.899126
0.950187
0.972904
0.195305
-0.309346
-0.472358
-0.599943
-0.525227
-0.799082
0.372494
0.376679
-0.420446
0.391874
0.415536
0.202686
0.221577
0.222549
0.224916
0.226377
0.227449
0.275403
-0.130129
-0.204072
-0.0563119
-0.0375125
0.0847196
0.025264
0.0328268
0.0293132
0.0333063
0.149546
0.204506
0.204406
0.215004
0.218235
0.988063
0.95985
0.985634
0.901441
0.91649
0.857223
0.828741
0.668601
0.687601
0.63508
0.62241
-1.96637
-2.91043
-0.920918
-0.612146
0.00340786
0.0288109
0.0341929
0.342647
0.353623
0.348694
0.36474
0.678111
-0.668613
-0.892922
0.215004
0.209489
0.228006
0.229903
0.219833
0.221189
0.0193948
0.0282242
0.008356
0.0142671
0.0125934
0.555904
0.525061
0.205459
0.205402
0.229205
0.234652
0.233153
-0.00254639
0.270288
0.294776
0.41931
0.617884
0.63038
0.636734
0.735296
0.699827
0.796068
0.820653
0.00695761
0.00202783
0.0131365
0.00980471
0.0146958
0.185914
0.183151
0.201377
0.197253
0.193408
-0.356394
-0.426165
-0.214364
-0.0684378
-0.402242
-0.521573
-0.71526
-0.64419
-0.894709
0.768226
0.357726
0.372016
-0.348301
-0.320251
-0.452807
-0.295687
-0.383391
0.199887
0.20408
0.202306
0.206109
0.199268
0.209813
0.22548
0.222719
0.223413
0.297066
0.356256
0.238991
0.214156
-0.417533
-0.209702
-0.400479
-0.0208289
-0.00979487
0.0981911
0.109829
0.0725343
0.0696776
0.0133355
0.0232845
0.0211722
0.0373896
0.030818
0.144319
0.134094
0.156178
0.171311
0.197508
0.201851
0.199449
0.201768
0.779298
0.803128
0.809798
0.783401
-3.8689
-6.42822
-0.255006
-0.0769302
0.000948958
0.00465753
0.00298877
0.000237902
0.00582285
0.000238461
0.0509332
0.0456894
0.0378328
0.0357851
0.328907
0.335024
0.658999
0.719681
0.6058
0.590724
0.202276
0.204851
0.213412
0.209227
0.0300903
0.0278924
0.0269571
0.417819
0.475056
0.454932
-0.0396902
-0.128075
0.0439481
0.0666219
0.317729
0.306037
0.319593
0.498762
0.541421
0.829583
0.847813
0.844669
0.850822
0.893904
0.909464
0.876478
0.173628
0.178071
0.172369
0.207309
0.197218
0.205851
0.198049
0.200621
0.201037
-0.488332
-0.734656
0.531714
0.37257
0.056435
0.267499
0.754412
0.807022
0.352087
0.358249
0.363059
-0.233946
-0.324144
0.187552
0.164092
0.0900111
0.120791
0.103954
0.750112
0.713178
0.759889
0.734086
0.701274
0.725012
-0.644241
-1.98138
-1.12824
0.353175
0.133268
0.227449
0.0657574
0.0500394
0.054685
0.704899
0.764212
0.388544
0.493289
0.484676
0.58789
0.622644
0.670104
0.593923
0.631415
0.667949
0.652265
0.69927
0.58083
0.680848
0.769261
0.787249
-0.146398
-0.184949
-0.258177
0.117764
0.152597
0.134325
0.737654
0.754725
0.785413
0.20334
0.211493
0.0117349
0.0210738
0.225156
0.228163
0.00780748
0.0104623
0.224671
-1.33899
-0.105263
0.210465
0.202693
0.217375
-0.0678372
0.263081
0.0361667
0.0948813
0.0666649
0.202361
0.158927
0.130408
0.0111494
0.0185232
0.0193604
-0.315507
0.211122
0.201585
0.218629
0.22139
0.225052
0.0144003
0.0133163
0.00711821
0.0161312
0.0184428
0.0200984
0.187534
0.195721
-0.218826
0.215663
0.219237
0.220825
0.209984
0.222866
0.215653
0.0182882
0.0125923
0.00796464
-0.045905
0.0688411
0.541617
0.658389
0.514789
0.191753
-0.149134
0.401853
0.470073
0.349144
0.535409
0.332733
0.364619
-0.0526449
-0.165013
-0.0732281
-0.128338
0.207209
0.204238
0.197708
0.199838
0.215812
0.213567
0.213547
0.215532
0.216213
0.213976
-0.021821
-0.0365776
-0.0847419
-0.144752
0.287492
0.348996
0.212134
0.223449
0.137377
0.0407569
0.035527
0.0356473
0.0234981
0.0656296
0.0695693
0.0781297
0.0739977
0.048659
0.0502167
0.0629707
0.0642625
0.0697546
0.200897
0.199018
0.204369
0.215914
0.165639
0.168112
0.141673
0.15901
0.145349
0.103027
0.123764
0.103663
0.0104
0.00990997
0.00993774
0.0193179
0.0315387
0.0205656
0.0171505
0.0125105
0.0125641
0.0149921
0.0259868
0.0275433
-0.261388
-0.384005
0.635175
0.543601
0.328801
0.20794
0.212408
0.201249
0.207349
0.217669
0.225664
0.221333
0.209202
0.199388
0.198108
0.19629
0.197439
-0.0883996
-0.28017
-0.128535
-0.228911
-0.349609
0.298947
0.0713125
0.0296683
0.014031
0.204649
0.772105
0.652975
0.627239
0.625647
-0.876352
-0.350915
-0.722278
-0.0891599
-0.484389
0.515799
0.564716
0.580391
0.522874
0.482247
-0.466323
-0.0724684
-0.203467
-0.149414
-0.0296232
-0.104957
0.460696
0.324551
0.338526
0.354824
0.394102
0.324091
0.295686
0.297431
0.340731
0.34996
0.130898
-0.0213562
-0.0576108
-0.0907914
0.327313
0.178615
0.233083
0.180292
0.201615
0.203105
0.205639
0.195918
0.195999
0.197617
0.196793
0.199538
0.207164
0.205425
0.206083
0.207948
-0.017113
-0.0119425
-0.0201043
-0.188122
-0.174213
-0.262658
-0.0959928
0.129078
0.0991403
0.284313
0.379601
0.0700304
-0.0840271
-0.0515682
0.0249339
0.147626
0.136227
0.107429
0.150292
0.170777
0.142046
0.196646
0.182676
0.0437434
0.0594182
0.0415792
0.0351777
0.0989216
0.11771
0.11397
0.0506905
0.0561558
0.0400652
0.0416895
0.0774279
0.0567453
0.0687195
0.0742723
0.0238248
0.0241535
0.035066
0.039079
0.0418882
0.0378019
0.194792
0.197254
0.200034
0.206497
0.213651
0.230681
0.205384
0.182962
0.171976
0.17858
0.157372
0.173779
0.16229
0.175549
0.184045
0.195614
0.194531
0.195634
0.18319
0.181871
0.181858
0.183191
0.15718
0.138892
0.132463
0.0229762
0.0170211
0.0192826
0.0222961
0.0132512
0.0132583
0.0497534
0.036816
0.0449416
0.0344856
0.0476201
0.024928
0.0259245
-0.0826573
0.0432867
-0.230663
-0.285304
-0.366624
0.625057
0.678131
0.542489
0.460855
0.477072
0.567544
0.600178
0.376532
0.465894
0.445151
0.68548
0.71057
0.188998
0.196188
0.204174
0.195754
0.195117
0.0331303
0.127642
0.0302289
0.0709941
-0.0806624
-0.148944
0.523325
0.458742
0.514718
0.445146
0.290436
0.30775
0.249899
0.281063
0.287557
0.126763
0.198455
0.236736
0.202679
0.2327
0.252973
0.222376
0.244452
0.210979
0.183491
0.180156
0.128072
0.137821
0.118612
0.113631
0.192474
0.181036
0.182367
0.179562
0.199149
0.228721
0.219285
0.23037
0.243224
0.181821
0.153693
0.157533
0.177283
0.150114
0.159023
0.170357
0.253476
0.196903
-0.0300428
-0.616518
-0.514569
-0.460901
-0.571465
-0.479495
-0.219109
-1.01356
-0.805694
-1.31738
-0.277236
0.724094
0.411259
0.479907
0.396176
0.344773
0.340668
0.433216
0.438997
0.313909
0.323607
0.332257
0.243163
0.282316
0.30614
0.313184
0.0175755
0.0615792
0.0170579
0.0508487
-0.0266801
-0.0144167
0.118025
0.0807269
0.0236061
0.0177781
0.160875
0.0576747
0.106054
0.15446
0.111219
0.0770661
0.212214
0.285302
0.269405
0.23834
0.171081
0.171301
0.201924
0.236717
0.252497
0.280658
0.195465
0.200089
0.199943
0.199324
0.196743
0.1992
0.19927
0.202267
0.20376
0.207323
0.20675
0.0271206
0.036939
0.00849744
0.0151075
0.0394553
0.0166498
0.0611489
0.0498582
0.0484291
0.0497169
0.0345894
0.00576872
0.0185606
0.0359539
0.162424
0.185143
0.189588
0.139224
0.234613
0.343917
0.384147
0.33321
0.21053
0.241797
0.283256
0.0819885
0.0929234
0.0808287
0.103608
0.0926587
0.0407103
0.0376992
0.0366121
0.0484191
0.0442055
0.0345573
0.0304952
0.0296869
0.0310309
0.0359406
0.0333033
0.185239
0.177191
0.168926
0.165486
0.164869
0.18264
0.189255
0.187814
0.193112
0.194613
0.187706
0.19334
0.194311
0.0394082
0.0252963
0.0266149
0.0289888
0.0245011
0.0355887
0.0318146
0.285134
0.157891
0.247635
0.100902
-0.137448
-0.0453466
0.523228
0.623383
0.612874
0.665493
0.595981
0.57715
0.621668
0.712859
0.431062
0.555923
0.503254
0.659292
0.658622
0.701452
0.560966
0.122335
-0.457164
-0.123744
0.076641
-0.347001
0.000302714
0.000847917
-0.0169944
-0.00619331
-0.0695174
0.176931
0.242095
0.301725
0.427726
0.214775
0.343142
0.0512821
0.138039
0.34832
0.336849
0.33432
0.286755
0.306886
0.322768
0.291034
0.316976
0.252619
0.247543
0.255118
0.270994
0.26117
-1.12989
-1.12524
-1.81855
-1.33597
-1.05782
-0.595384
-0.628738
0.13514
0.0346578
0.308692
0.279843
0.252279
0.209166
0.14167
0.226776
0.0616915
0.155312
0.134829
0.134025
0.0627357
-0.0084334
0.251223
0.248292
0.27534
0.296251
0.279248
0.300952
0.19385
0.190697
0.19672
0.190894
0.179103
0.180361
0.110898
0.086022
0.126034
0.1087
0.0658581
0.0563716
0.0417178
0.0390729
0.0295942
0.0273611
0.0424544
0.0426188
0.30156
0.31609
0.149315
0.251597
0.0118795
-0.064244
-0.108052
0.0869398
0.142838
0.176868
0.472296
0.57316
0.516204
0.537412
0.438093
0.462542
0.524344
0.313867
0.431349
0.403295
0.500391
-0.978022
-1.06991
-1.04954
0.130244
0.00350327
-0.540483
-0.822862
-0.822946
-0.45405
0.0957039
0.0824406
0.119803
0.133038
0.147269
-0.811011
-0.572107
-0.912622
-0.696815
-0.0499764
-0.367627
-0.13794
-0.521964
-0.329028
)
;

boundaryField
{
    wall-4
    {
        type            zeroGradient;
    }
    velocity-inlet-5
    {
        type            zeroGradient;
    }
    velocity-inlet-6
    {
        type            zeroGradient;
    }
    pressure-outlet-7
    {
        type            fixedValue;
        value           uniform 0;
    }
    wall-8
    {
        type            zeroGradient;
    }
    frontAndBackPlanes
    {
        type            empty;
    }
}


// ************************************************************************* //
