/*--------------------------------*- C++ -*----------------------------------*\
  =========                 |
  \\      /  F ield         | OpenFOAM: The Open Source CFD Toolbox
   \\    /   O peration     | Website:  https://openfoam.org
    \\  /    A nd           | Version:  9
     \\/     M anipulation  |
\*---------------------------------------------------------------------------*/
FoamFile
{
    format      ascii;
    class       surfaceScalarField;
    location    "5";
    object      phi;
}
// * * * * * * * * * * * * * * * * * * * * * * * * * * * * * * * * * * * * * //

dimensions      [0 3 -1 0 0 0 0];

internalField   nonuniform List<scalar> 
1300
(
3.75095
5.62643
-6.40873
3.75095
-6.34687
5.62643
-5.48732
5.48732
-1.66133
1.66133
1.88117
1.86979
-5.49444
5.49444
-5.46372
5.46372
-2.99578
2.99578
-5.24493
5.24493
-5.06679
5.06679
4.76223
-4.76223
-5.20992
5.20992
-2.15351
2.15351
-6.09815
6.09815
3.16581
-3.16581
-5.49112
5.49112
-0.570676
0.570676
-0.554841
4.30579
3.19611
3.19611
-2.81094
2.81094
-4.85568
4.85568
6.219
-6.219
9.71211
-9.71211
-3.30338
-3.30505
1.37884
-8.09307
-4.96803
-4.96803
-8.44076
8.44076
-2.81433
2.8121
3.13801
-3.13801
-1.0782
1.0782
-5.11922
-0.368097
-5.11922
5.88688
-0.399561
5.88688
-1.80863
0.147297
-1.80863
4.24563
-4.24563
1.52155
0.139783
1.52155
3.103
-3.103
-1.88026
3.76143
1.87069
-1.86236
6.16815
-1.88859
3.75838
-4.94231
4.94231
-5.58089
0.0864562
-5.58089
5.47931
0.0151277
5.47931
-5.36947
5.36947
-5.47524
0.0115178
-5.47524
5.45039
0.013326
5.45039
3.19132
-3.19132
-3.03532
0.0395326
-3.03532
2.9547
0.0410808
2.9547
0.354389
5.27204
-5.98082
8.79292
-5.27204
0.0271106
5.20857
0.0363555
5.20857
-5.10385
0.0370514
-5.10385
5.02026
0.0465364
5.02026
4.81311
-0.0508799
4.81311
-4.87891
0.11668
-4.87891
-3.29596
-3.29517
-5.28507
0.0751494
-5.28507
-2.14446
-0.00904849
-2.14446
2.1254
0.0281062
2.1254
-3.87958
3.87958
-6.30019
0.20204
-6.30019
3.08201
0.0837981
3.08201
1.86541
1.88554
5.61636
-5.61636
2.45055
-5.46734
-0.0237824
-5.46734
-5.50402
-4.2081
5.50402
-0.0128936
-1.05533
0.484652
-1.05533
3.12894
0.0671709
3.12894
2.9383
0.0164066
-2.9383
0.127351
3.60395
-3.60395
2.11103
0.699916
2.11103
-5.58652
5.58652
4.9564
0.0638536
-4.9564
0.100722
6.16049
0.0585106
6.16049
-6.19961
-0.0193878
-6.19961
3.33794
-6.64299
-3.29305
5.10002
0.109897
-5.10002
0.13199
3.15973
-0.0217207
3.15973
-3.0953
3.0953
-3.1276
-0.0104018
-3.1276
-1.38883
0.310636
-1.38883
1.07979
-0.00159485
1.07979
-4.77716
-0.342062
-4.77716
-6.1924
-0.107788
6.1924
-0.305523
2.64198
-2.64198
-1.94862
0.139997
-1.94862
-4.44463
-0.332528
4.44463
-0.198997
-4.11538
-0.130254
-4.11538
-3.1125
-0.015102
3.1125
-0.00949722
3.09844
0.0304996
-3.09844
-0.00456287
-1.87336
3.7589
-1.8776
3.74829
-4.65893
-0.283383
-4.65893
5.10037
-0.158055
5.10037
5.83113
0.267023
-5.83113
0.250235
5.44873
0.0305808
5.44873
-5.34751
-0.0219664
-5.34751
5.39886
-0.0293856
5.39886
5.44556
0.0031707
-5.44556
-0.0296811
5.45954
-0.00914885
5.45954
3.23461
-0.0432923
3.23461
-3.17187
-0.0194503
-3.17187
3.08315
-3.08315
3.07995
0.00319295
-3.07995
0.0446382
-11.1307
11.1113
-0.0331804
-11.0975
5.17539
5.17539
3.95179
0.861321
3.95179
-5.051
0.172082
-5.051
3.29477
-6.58781
3.29515
-6.59111
3.30369
-11.3968
3.31935
-6.61452
5.4069
-5.4069
5.35711
0.0497911
-5.35711
0.0720428
-2.15681
0.0123476
-2.15681
-3.69223
-0.187344
-3.69223
4.08824
-0.208659
4.08824
-3.08246
3.08246
-3.07428
-0.00818486
3.07428
0.00773495
5.46772
-0.00817838
-5.46772
0.000382549
1.33244
0.189108
-1.33244
0.27711
3.77318
-0.169225
3.77318
-3.42392
-0.180038
-3.42392
-2.1226
-0.0342022
2.1226
-0.0115759
-5.82591
0.239391
-5.82591
-11.1898
0.0923113
-11.1535
-6.1073
-6.1073
2.33346
11.1264
-3.16446
-0.00740458
3.16446
-0.00473822
3.10681
-0.0243532
-3.10681
0.0115187
-3.0869
0.00375715
3.0869
0.00839121
-1.88705
0.498213
-1.88705
-1.83425
1.83425
-1.38068
-0.453567
1.38068
-0.300891
2.95856
-0.316581
2.95856
2.04999
0.0754137
-2.04999
0.101366
-3.99051
-0.124871
-3.99051
5.15558
-0.055212
5.15558
-3.31947
-0.104444
3.31947
-0.0848601
-0.0345806
11.1459
-5.14081
0.0369685
5.14081
-11.2044
11.2414
-2.77637
0.889327
2.77637
1.17542
5.31595
0.270564
-5.31595
0.264956
5.39372
0.00513657
-5.39372
-0.0131769
-3.47371
-0.218519
-3.47371
-4.31478
-0.34415
4.31478
-0.226545
-11.4588
-0.200741
11.6596
-11.4123
6.02665
0.13384
-6.02665
11.3752
-2.2795
-0.362478
2.2795
-0.445252
3.15671
-0.198147
3.15671
3.90466
-0.131485
-3.90466
-0.0858451
-5.2615
-0.086005
5.2615
-0.105921
-3.28754
-0.18617
3.28754
-0.130839
-4.19855
4.26572
1.96961
-3.35009
-3.2929
-7.55818
1.81334
1.94556
4.2639
-7.03487
-4.3619
-6.90288
7.29859
-7.03363
-9.61645
9.56557
7.22083
-7.35108
-5.78912
5.79685
6.39243
-6.40193
1.8581
1.90333
10.6042
-10.5177
-10.2734
9.99002
10.2168
-10.2053
10.5941
-10.6161
-12.1814
12.1865
-5.6872
5.72674
-6.61302
6.59357
-6.70493
6.62007
-3.23937
-3.35174
9.03742
-8.96227
11.6665
-11.6903
-11.2099
11.4119
3.3023
0.963414
3.3328
-1.90815
3.76625
-1.85023
3.81984
3.27528
-6.51465
3.31254
-6.60544
6.00706
5.65946
-5.99417
-1.56402
-5.86202
5.8403
-5.79141
5.7998
9.40291
-9.77101
-1.87842
3.78175
-1.86987
3.81542
-3.40219
-2.38693
3.31839
0.94551
5.55489
3.48253
-5.66479
-1.23809
-7.51839
7.3869
-7.81875
7.63872
-0.481407
5.78186
-5.30045
4.37427
-1.45507
7.23693
5.84352
6.0156
5.86282
-5.59226
1.17081
-6.47126
-6.37054
-2.66149
2.80148
2.692
-2.55222
5.71814
1.50269
5.51914
-5.42085
-1.93023
-5.54572
3.85435
1.94251
3.84616
4.0698
2.32263
4.0547
3.05617
-3.05353
-0.00264741
-3.10223
6.1584
0.728224
-5.48916
-4.54365
6.97036
3.63382
6.98548
-7.24751
-3.27021
-6.99727
-6.0426
-4.2308
-6.38675
6.53679
3.45323
6.37873
-7.84845
7.74252
6.7418
3.47503
6.75513
-6.81579
-3.38952
-6.84547
10.2773
-2.65943
-7.61785
-6.81758
-5.36382
6.84696
3.74719
7.45197
4.73457
7.43879
3.5057
6.77158
-7.25289
1.88906
-3.82597
-1.86123
-3.78133
3.67301
2.05373
3.71409
-4.16649
-2.44653
-4.17389
-4.20043
-2.50451
4.24372
2.34985
-4.25505
-3.5637
4.3595
2.26058
3.05327
-7.41517
3.56125
-6.913
-6.27363
-2.68864
-6.20159
3.93434
2.65486
-6.5892
-2.58031
10.7498
-5.09031
9.18575
-7.26723
-4.42307
-7.26685
-8.50789
-2.702
-8.61567
-5.59544
5.37692
-5.61065
5.40199
10.3591
-5.56632
-4.79283
-3.84308
-2.55885
3.84764
-0.514835
-3.82619
3.82355
-0.059942
3.75989
4.72331
4.20847
-3.85483
-1.93657
-3.84331
3.83834
1.96146
3.84209
8.05846
1.34445
7.6589
-6.39003
-3.38098
-6.73209
7.33303
-7.0224
2.96923
-3.00343
5.03834
2.60037
-4.86912
-2.64927
5.90938
-2.84729
-3.06209
-12.0632
11.0392
1.02405
-4.82632
-0.452048
0.118628
-5.67218
-3.94427
5.5555
0.460105
11.4993
7.55503
-5.50675
5.74614
6.15281
6.21666
-0.153879
5.39645
-4.50712
3.87144
-2.14352
-1.72792
5.10047
-5.43299
-1.63163
-4.98164
3.35001
0.086148
2.21428
-1.72963
-2.14919
-0.5123
-2.04782
1.65689
1.03511
1.846
0.981555
1.81993
-2.87786
0.584997
2.29287
-1.89631
-1.96722
-3.34413
-1.18191
4.52603
5.39375
1.99315
-5.3079
-0.23782
2.81742
-2.78931
-0.569786
-2.77434
2.11653
-2.68632
-3.32189
-1.84893
5.17083
-3.3402
-0.503115
3.36455
0.481611
-3.76683
-2.09518
3.77723
0.277462
-3.03176
6.09846
-3.06671
-4.96833
2.59941
3.55898
4.54192
-4.78458
2.42688
2.3577
-1.2256
6.01464
0.970848
6.04522
-9.16867
5.89846
7.68809
3.72383
-7.95511
0.957842
-8.21083
9.55058
-8.38197
-1.16861
4.94563
4.60495
5.08534
5.27381
-3.81748
8.90282
-1.19319
-7.18878
9.40402
-5.68018
5.65624
-11.3364
-10.93
3.74127
-6.79835
8.47289
-1.67454
-2.41841
-5.43003
9.21676
-0.893489
-8.32328
5.48525
-5.27904
-5.31285
10.5919
-7.93847
8.70238
-2.55938
-6.143
-6.62141
-3.99471
6.70741
1.03511
-9.79792
11.687
-3.02634
5.86228
0.892844
5.85314
3.8212
-5.92576
2.10455
4.11726
-6.67664
2.51773
-8.44349
-4.7225
9.42886
-4.70636
-7.41114
-6.56309
-0.848046
2.04652
9.64046
-6.78109
5.2761
1.50499
3.3321
0.509993
-3.33529
-0.446035
0.331051
4.36476
-4.69582
4.04514
4.06155
3.31645
1.04831
3.82939
2.0109
-3.82465
-0.349241
-3.94686
1.44235
-1.597
-3.39282
4.83517
-3.79756
0.404745
-2.62644
-3.47921
6.10565
-4.48768
3.05342
3.04505
5.01487
-4.73669
1.25749
-2.35237
-2.38432
2.54008
-4.13708
1.87317
2.962
4.13374
0.570043
4.7288
4.70006
-7.38366
0.470665
8.18259
-6.9445
1.61109
5.8277
-6.88719
0.324096
-5.87749
1.15603
-6.24635
-5.43316
6.0381
-8.7401
-5.29832
7.77563
-0.116734
-7.47011
-1.14556
-3.87769
-1.71775
-4.06386
-1.65747
-3.95318
-5.47495
-1.2364
-4.23855
4.14053
-4.22014
-2.16661
4.44669
0.955304
-4.92801
4.56553
-4.79031
4.59216
0.14892
3.67463
4.35739
1.79854
-2.44903
4.24757
-6.6054
7.94985
-8.5486
1.9432
2.7028
-6.08378
-5.8458
3.94244
3.3906
3.94084
6.77751
-9.67927
2.90176
-7.31811
7.96472
-0.646606
-11.207
3.8889
-4.4295
2.75261
0.216622
2.76496
0.715727
2.34297
-3.05869
-2.28771
-2.29928
-2.19756
-3.17425
5.37182
1.04284
-3.19941
2.15657
-3.21856
4.2614
-0.153222
-3.04619
5.17201
-2.82905
5.38863
-3.37178
2.01686
3.08034
5.24375
-2.16342
4.16554
-1.56516
1.65799
-3.82141
-1.51627
-2.93719
4.99091
-3.16846
3.57321
-0.295096
3.8683
-3.89588
1.04858
-0.579426
3.48212
3.60947
4.0905
-3.04219
2.793
-4.35816
-1.02841
-3.78812
-0.826118
-4.34916
-3.40907
7.75823
4.50681
-8.85597
-5.71936
8.39825
-2.67889
6.84709
-5.76821
-1.07889
-3.62979
-3.39261
3.13158
2.26487
9.11197
-0.322811
-5.44539
-4.82993
-3.65451
1.91661
1.95483
-2.70405
3.7281
2.58542
-0.37114
0.578548
1.26745
1.96324
-1.3847
0.185069
1.77817
-1.54456
2.07749
0.73993
-2.1529
0.105083
-1.23786
3.3544
1.055
-2.09012
0.70542
0.860819
-3.00434
4.30828
-1.99938
-2.3089
5.1691
1.24778
-3.24716
3.73386
-3.64771
1.96578
-3.14769
-1.28138
-4.92909
-3.4264
-2.34489
4.50146
-3.02692
5.02008
1.17957
-4.78226
5.96183
-3.34881
1.49988
-2.89603
3.63596
-0.912584
-1.98345
2.59871
2.57211
-2.74471
-0.0296256
-0.146001
2.14702
-2.29302
-0.539296
-2.43561
-4.49858
4.77604
-2.07162
4.4985
2.17595
-1.90979
6.40829
1.79833
-3.70812
-3.17
-3.67311
-1.35042
3.1915
-0.917578
-5.92789
-7.06057
5.92472
0.120494
-8.97736
10.1281
-1.15078
-5.34355
-0.554911
5.50054
-7.38242
0.705775
-4.86469
5.26346
6.2343
6.3548
-8.26345
-0.0598258
-4.81022
1.22315
-6.03337
5.8281
-2.8049
6.54616
-7.05323
4.88662
-6.09792
5.37755
-0.655814
5.49369
-3.38914
2.12416
-6.11887
-5.08376
6.98596
-3.51093
7.87881
-4.05462
11.9334
-7.08096
6.91291
5.02051
-1.35945
-5.9074
-6.85047
5.49102
0.0624428
5.91558
4.80171
-2.7908
4.45247
2.13115
-4.48352
-2.00593
-6.27669
1.79317
-3.23164
-1.85293
3.6461
3.16194
3.67193
1.26178
-3.2259
6.48577
-7.33382
-1.77941
-3.65376
6.74125
-1.25023
3.92817
-7.58192
-2.31818
5.41269
-0.960595
-4.45209
0.153633
-5.45195
2.73914
-8.19109
6.00096
-7.14652
1.70517
-6.13467
-3.22284
-3.6681
-1.48617
-3.30413
-4.83372
3.34754
-0.944818
3.62071
-5.75141
4.79082
-2.21331
5.56085
-3.529
-0.534865
3.65984
0.932322
6.49317
-2.1277
-3.7181
-0.633846
3.50302
-2.86918
1.28276
-5.53678
-2.03375
2.36384
2.80526
-5.71385
-0.369923
-4.08802
-2.55136
5.94196
5.84688
10.3537
0.674421
6.66929
-0.727328
7.34371
3.21351
2.91262
-3.16485
6.06661
4.59339
6.53658
-0.834987
2.85184
1.92997
1.92092
0.868393
2.22772
1.38175
3.27631
0.217617
-2.08167
5.11609
-8.77061
-0.3293
-7.90929
1.65628
6.46151
-4.80522
2.99145
-1.03662
0.122269
-1.03355
-1.91818
2.95172
-2.76147
-2.28932
-0.511141
-1.59305
2.29847
1.76134
-1.78733
-0.974135
0.382329
-3.80873
2.76536
-2.79498
-0.222869
5.73896
-2.54351
0.250486
-1.04363
-2.18512
-2.69742
2.59234
6.12035
0.287939
3.05365
5.06398
2.9688
0.177994
4.36873
-6.04328
-4.07475
-6.1031
-0.275007
5.22553
1.98223
7.65824
7.00274
5.75251
-1.82941
-9.16323
7.28436
-1.21775
6.63775
-2.18566
-6.00543
6.41415
1.53571
-6.29742
-0.849102
-6.85454
-8.07229
-0.485962
5.27678
-6.00721
5.47234
3.7546
0.483953
-2.74207
-0.926026
3.19564
-0.283015
7.0607
-1.81903
-8.39302
10.2121
-4.64247
4.31317
0.00235941
3.72574
2.95408
1.91747
-6.47555
-11.2808
-1.77499
-1.22935
-4.08389
0.442144
-2.20349
6.27568
-1.96251
5.1968
8.24954
8.37181
-3.92715
-4.92881
6.60604
-1.40924
6.96257
)
;

boundaryField
{
    wall-4
    {
        type            calculated;
        value           uniform 0;
    }
    velocity-inlet-5
    {
        type            calculated;
        value           uniform -3.75095;
    }
    velocity-inlet-6
    {
        type            calculated;
        value           uniform -5.62643;
    }
    pressure-outlet-7
    {
        type            calculated;
        value           nonuniform List<scalar> 8(6.40873 6.34687 6.60843 6.71423 6.59113 6.63099 6.58992 6.62305);
    }
    wall-8
    {
        type            calculated;
        value           uniform 0;
    }
    frontAndBackPlanes
    {
        type            empty;
        value           nonuniform List<scalar> 0();
    }
}


// ************************************************************************* //
