/*--------------------------------*- C++ -*----------------------------------*\
  =========                 |
  \\      /  F ield         | OpenFOAM: The Open Source CFD Toolbox
   \\    /   O peration     | Website:  https://openfoam.org
    \\  /    A nd           | Version:  9
     \\/     M anipulation  |
\*---------------------------------------------------------------------------*/
FoamFile
{
    format      ascii;
    class       volVectorField;
    location    "5";
    object      U;
}
// * * * * * * * * * * * * * * * * * * * * * * * * * * * * * * * * * * * * * //

dimensions      [0 1 -1 0 0 0 0];

internalField   nonuniform List<vector> 
918
(
(0.987417 -0.00715877 0)
(0.00483017 2.96639 0)
(-0.00520132 1.70839 0)
(0.967621 0.0138311 0)
(-0.00652508 1.69205 -1.92361e-21)
(-0.00695367 2.94866 -2.16609e-18)
(1.0404 1.42164 6.06586e-19)
(0.558435 0.295252 -8.42161e-21)
(0.999421 -0.00180214 0)
(0.0143535 1.64316 0)
(0.0120802 1.65304 0)
(0.906706 0.0158176 0)
(0.0117715 2.92918 0)
(-0.00511764 2.79598 0)
(-0.0352716 3.23294 1.16862e-18)
(0.00970915 1.6522 -2.39384e-20)
(0.694156 0.135433 5.40319e-19)
(0.25366 1.92848 5.84605e-19)
(0.96673 0.0256749 0)
(0.000729675 1.66543 0)
(0.17485 0.285758 -6.09182e-19)
(0.991918 -0.00468603 0)
(0.993327 -0.00997602 0)
(0.967937 -0.00692522 0)
(0.846371 0.00389125 0)
(0.0148701 2.63897 0)
(-0.0140931 2.91131 7.768e-19)
(-0.00566552 1.72188 0)
(0.0045538 1.76187 0)
(0.0062723 1.72998 0)
(0.0108553 1.79004 0)
(-0.00310146 1.7033 1.52497e-21)
(-0.00338583 1.63721 0)
(-0.0208483 2.9876 -7.6944e-23)
(-0.0167779 3.00544 1.68568e-18)
(0.00219924 3.00039 0)
(0.950063 0.0070956 0)
(0.223985 0.378851 -2.34135e-19)
(0.962684 1.47768 -6.40565e-19)
(1.09629 1.19615 7.4216e-19)
(0.838858 1.68696 -1.37964e-19)
(0.920875 1.66082 8.49841e-19)
(0.599219 0.343515 8.21715e-21)
(0.58194 0.280928 0)
(1.22604 0.601223 0)
(0.582942 0.350183 3.95315e-20)
(0.53089 0.307957 -4.10196e-20)
(0.941945 0.00229037 0)
(0.999932 -7.78245e-05 0)
(1.00023 0.000993848 0)
(0.986181 -0.0156137 0)
(0.999802 -0.00321793 0)
(1.0023 0.000131409 0)
(0.0304076 1.60883 -5.09271e-19)
(0.017747 1.74012 0)
(0.0798187 1.68296 0)
(-0.00281615 1.72835 0)
(-0.00315616 1.64238 0)
(0.000219804 1.64525 0)
(0.00226224 1.71292 0)
(-0.00230764 1.65474 0)
(0.00563542 1.71374 0)
(0.0125266 1.64448 0)
(0.962665 -0.00136789 0)
(0.94464 0.0106245 0)
(0.911833 0.012601 0)
(0.929995 0.0182585 0)
(0.894473 0.00419743 0)
(0.0149746 3.0002 7.98773e-19)
(0.0120564 3.00739 0)
(0.00646845 3.0034 0)
(0.0136623 2.99697 9.03326e-24)
(0.00843522 2.95803 -1.18718e-18)
(0.0140379 2.98105 0)
(0.0105197 2.90425 0)
(0.0228224 2.92754 1.74119e-24)
(0.00504663 2.824 0)
(0.0243529 2.91236 0)
(-0.0260687 2.75359 0)
(0.277707 3.59106 0)
(-0.126066 3.68603 0)
(0.132567 3.31609 -1.08561e-18)
(-0.00982361 3.03327 0)
(0.00305302 1.75714 0)
(0.00612956 1.711 2.36191e-20)
(0.0146248 1.65393 -3.25944e-20)
(0.724406 0.16896 -1.8664e-19)
(0.696948 0.102922 -1.86889e-19)
(0.725391 0.206478 -5.6221e-19)
(0.669299 0.182334 -3.7574e-19)
(0.202706 1.34664 0)
(0.344406 2.00457 -6.43233e-19)
(0.49752 1.96774 1.0817e-18)
(0.979354 0.0194755 0)
(0.93379 0.0227594 0)
(1.00178 0.000136858 0)
(0.994163 0.0135674 0)
(0.998233 0.0223966 -1.1221e-18)
(0.985349 0.0348758 8.6676e-19)
(-0.0019338 1.70999 0)
(-0.00455992 1.65696 0)
(0.0047845 1.73948 0)
(0.000553189 1.722 0)
(0.0102238 1.66616 0)
(0.284177 0.395372 1.8032e-19)
(0.393206 0.328133 0)
(0.989754 -0.00141417 0)
(0.954041 0.00822465 0)
(0.915212 -0.00507498 0)
(0.905084 0.0107748 0)
(0.893123 -0.01188 0)
(1.08239 -0.00169776 0)
(0.850915 0.0615575 0)
(0.763804 0.0336664 7.36375e-19)
(-0.0417968 2.87715 4.62291e-19)
(0.0356186 2.90939 0)
(0.0543401 2.88538 0)
(-0.0229604 2.70931 0)
(-0.0119482 2.9853 7.29638e-19)
(-0.015921 2.89745 0)
(-0.0149648 2.9881 -2.2757e-18)
(-0.0126292 2.9254 7.82823e-19)
(0.00474531 1.77337 0)
(0.00516248 1.76781 0)
(0.00283151 1.71581 -3.12988e-22)
(-0.00721593 1.70329 0)
(-0.00907175 1.64431 0)
(0.983981 0.00711192 0)
(0.952786 0.00643431 0)
(0.934334 -0.00553763 0)
(0.979701 0.0134436 0)
(0.948946 0.00265598 0)
(0.412683 0.750946 2.79554e-19)
(0.254561 0.729061 0)
(0.498285 0.655408 -2.47407e-20)
(0.247421 0.257518 0)
(1.04673 1.25024 -2.0578e-19)
(1.1559 0.965507 4.49276e-19)
(0.532625 1.97918 0)
(0.690217 1.87149 0)
(0.743546 1.8646 0)
(0.545432 0.987653 -3.54751e-19)
(0.649918 0.311504 0)
(0.627394 0.231415 1.06017e-19)
(1.11225 1.03756 0)
(1.16375 0.845606 0)
(1.18193 0.773085 -3.96441e-19)
(1.20918 0.663012 0)
(1.26538 0.424353 6.46938e-20)
(0.976967 -0.00405841 0)
(0.973238 -0.000153253 0)
(0.940534 -0.00992014 0)
(0.971001 0.0101577 0)
(0.967271 0.00691244 0)
(0.937335 0.0114688 0)
(0.999878 0.001191 0)
(0.999129 0.0018254 0)
(0.999743 0.00110058 0)
(0.0262384 1.62661 2.73788e-19)
(0.0561871 1.54154 0)
(0.00153128 1.66974 4.59197e-19)
(-0.00551686 1.62597 -3.92615e-19)
(0.186379 1.90871 -4.86486e-19)
(0.0638279 1.77398 0)
(0.123757 1.77812 0)
(0.00315325 1.73018 0)
(0.00717117 1.63883 0)
(-0.00462833 1.69595 -1.31148e-21)
(-0.00257491 1.64801 0)
(0.00119444 1.70247 -6.1344e-20)
(-0.00708604 1.65511 1.19491e-19)
(-0.0107037 1.71667 0)
(-0.0180191 1.71166 0)
(-0.0158102 1.63809 0)
(0.00557293 1.7076 0)
(-0.00101051 1.65157 0)
(1.00898 0.00450536 0)
(0.973815 0.0081843 0)
(0.99783 0.00926828 0)
(0.956627 0.0116983 0)
(0.92803 -0.00197128 0)
(0.967547 0.000887155 0)
(0.967069 0.00716257 0)
(0.930356 -0.0112591 0)
(0.00599795 3.06501 -7.2779e-21)
(0.0153248 3.0576 0)
(0.0139097 2.96958 0)
(0.00884559 2.87753 0)
(0.819309 3.95167 0)
(1.096 3.20023 9.71257e-19)
(0.0807464 3.13404 0)
(-0.0238059 2.92887 0)
(0.000363702 1.75616 0)
(-0.0019567 1.75638 0)
(0.00116741 1.75678 0)
(0.00700848 1.78335 3.94568e-21)
(-0.000316611 1.75984 0)
(0.0064536 1.76577 0)
(0.00266799 1.66466 1.89129e-21)
(-0.00843374 1.71532 4.15039e-20)
(-0.00068411 1.71819 3.32332e-20)
(-0.00361586 1.65904 0)
(0.756563 0.129395 2.8132e-19)
(0.717534 0.0624472 -2.70809e-19)
(0.18877 1.42394 0)
(0.291325 1.30395 -2.21709e-19)
(0.124328 1.43689 -6.54488e-19)
(0.148634 1.38265 6.53808e-19)
(0.927784 -0.00459124 0)
(0.968727 0.000626397 0)
(0.962984 0.00372458 0)
(0.921631 0.00297086 0)
(-0.00240305 1.71263 0)
(-0.000588311 1.70907 0)
(0.00172982 1.65572 0)
(0.531502 0.381745 3.64696e-19)
(0.460284 0.391576 -4.84457e-19)
(0.490741 0.310518 0)
(1.18989 0.0815138 -1.7817e-21)
(1.18038 0.037997 0)
(1.10885 0.0388701 0)
(1.02969 0.00988484 0)
(0.773973 0.0864423 0)
(0.787675 0.071307 -1.18874e-18)
(0.735943 0.0222474 4.5571e-19)
(0.00293428 2.98485 5.61445e-19)
(-0.0396931 2.87285 5.19009e-20)
(0.00201527 3.0501 -1.55764e-20)
(0.01921 3.04253 5.45626e-19)
(-0.0146229 2.99636 2.58798e-20)
(-0.0126494 2.94975 -1.03785e-22)
(-0.0174801 3.01213 -4.80762e-19)
(0.0150354 3.0235 3.54291e-19)
(0.00768475 3.03794 -5.55606e-19)
(0.994563 0.0153931 0)
(0.995484 0.0024037 0)
(0.956947 0.00820072 0)
(0.972159 -0.0110245 0)
(0.977446 -0.00520436 0)
(0.935733 -0.020282 0)
(0.969235 0.009088 0)
(0.967349 -0.000655585 0)
(0.931619 0.0023333 0)
(0.453596 1.0292 4.68868e-19)
(0.497742 1.16997 0)
(0.471662 0.621057 7.89128e-20)
(0.5791 0.829636 4.6818e-19)
(0.561861 0.716232 -1.46695e-19)
(0.339934 0.390591 2.23896e-19)
(0.498818 1.22334 1.72545e-18)
(0.507509 1.12317 3.58027e-19)
(0.691831 0.250136 4.03891e-19)
(0.674413 0.27149 9.60914e-20)
(0.653503 0.211122 1.9988e-19)
(1.25074 0.48457 2.61892e-19)
(1.26415 0.265137 2.89302e-19)
(-0.0162264 1.67592 1.83854e-19)
(-0.00385378 1.61919 0)
(1.05654 0.022887 0)
(1.02678 0.0173389 0)
(1.00606 0.00344597 0)
(0.0124383 3.07447 0)
(0.0202829 2.9431 9.91432e-19)
(0.0168536 2.95759 0)
(0.00855647 2.85144 -9.82289e-19)
(0.00918162 3.08721 2.39456e-19)
(0.00783915 3.08217 0)
(0.502687 1.53311 -2.10976e-19)
(1.06363 2.34531 4.95224e-19)
(0.508095 1.73101 -1.3262e-18)
(0.0166836 2.99451 -4.23066e-19)
(0.0434197 3.03233 0)
(-0.0342968 2.89592 0)
(-0.00479364 1.695 -6.20502e-21)
(0.00663389 1.70965 -8.895e-20)
(0.00591132 1.65611 -6.74103e-21)
(0.258051 1.36491 7.04496e-19)
(0.347739 1.26367 -4.96592e-19)
(0.0434498 1.55837 4.36486e-19)
(0.0757403 1.49544 -5.3883e-19)
(0.0775895 1.43782 5.65598e-20)
(0.0101683 3.11241 -1.31375e-18)
(0.0147066 3.11396 1.42501e-18)
(-0.00744695 2.98289 6.53474e-19)
(-0.00736956 2.98033 -5.98654e-19)
(-0.0237266 2.88728 -6.65513e-19)
(0.00891005 3.09914 -1.77223e-18)
(0.00578013 3.1021 1.76636e-18)
(0.531879 1.10573 0)
(0.568651 0.976539 -1.43112e-18)
(0.534432 0.84772 6.46894e-19)
(0.424476 1.27895 9.60269e-19)
(0.454122 1.17896 -1.50014e-18)
(1.26437 0.16786 -4.73444e-20)
(1.26221 0.312985 0)
(1.25288 0.120873 1.14336e-19)
(0.00553989 1.69821 -1.59331e-21)
(0.00074196 1.67767 0)
(0.0143331 1.6314 0)
(0.313983 1.32707 -2.55517e-19)
(0.364838 1.32205 -6.15939e-19)
(0.403942 1.20854 1.12169e-18)
(0.999895 -0.0380887 0)
(1.00457 -0.0354393 2.08331e-19)
(0.00459121 1.77113 0)
(-0.00106503 1.77899 0)
(1.00544 0.00843597 5.67373e-21)
(0.994882 0.0113575 4.22232e-19)
(-0.0044072 1.78205 -5.24218e-21)
(-0.00814678 1.78192 0)
(0.0623056 3.20822 2.15038e-19)
(0.410014 3.62013 0)
(1.09233 0.629251 3.39522e-20)
(1.00978 -0.00170868 -1.45822e-21)
(1.00763 0.00848448 0)
(1.00574 -0.00379897 -1.57472e-21)
(0.0323009 1.83884 0)
(0.0962504 1.69563 0)
(0.00648296 1.79025 0)
(0.00487163 1.76554 8.82267e-20)
(0.0126711 1.75938 4.52503e-20)
(0.994401 0.0113086 1.81206e-21)
(1.04103 -0.00465288 0)
(1.05853 0.0298279 0)
(-0.00898621 1.75344 0)
(-0.00590341 1.78511 0)
(-0.0137923 1.78211 0)
(0.221353 1.94684 -2.53207e-19)
(0.991938 -0.0323367 0)
(0.986038 -0.0250373 0)
(1.01595 -0.00646892 2.6533e-19)
(1.00921 -0.0164982 -3.03899e-19)
(1.00754 -0.00457512 0)
(-0.00152787 1.7393 0)
(0.00908612 1.76087 0)
(0.00193685 1.75534 0)
(-0.00816839 1.78557 0)
(-0.00113542 1.77778 0)
(-0.00669091 1.78302 0)
(1.01861 0.00204045 0)
(1.01343 0.00667433 -1.56304e-21)
(0.700728 1.44623 3.29171e-19)
(1.00684 -0.0025798 -2.58281e-19)
(1.01549 0.0123026 3.19461e-19)
(0.998994 0.00161466 0)
(1.015 0.00916735 2.49916e-19)
(0.997089 0.0105351 -3.18457e-19)
(0.988164 0.0223138 0)
(-0.00849855 1.78863 0)
(-0.0118302 1.78506 1.30208e-20)
(-0.0105036 1.7873 -8.644e-21)
(1.16267 0.248861 -1.32112e-20)
(1.09959 0.0713216 0)
(0.0701965 3.05022 -7.3686e-19)
(0.0806751 2.84976 -5.73327e-20)
(0.213224 3.1789 1.27485e-18)
(0.167225 3.22498 -3.63727e-20)
(0.188237 3.31921 0)
(0.0275287 3.13285 1.64318e-19)
(0.111864 3.15361 7.1269e-19)
(0.0958651 3.19558 -3.31145e-19)
(0.0300996 3.11867 0)
(0.704506 0.355189 0)
(0.645058 0.400428 0)
(1.00128 0.659083 -1.39825e-19)
(1.06967 0.820199 2.16989e-19)
(1.12444 0.525264 0)
(1.16331 0.528583 0)
(1.01638 -0.00553909 -4.8552e-19)
(1.01965 -0.00512783 6.01597e-19)
(1.01543 0.00872228 0)
(1.01586 0.0136609 0)
(1.01044 0.00699708 0)
(1.02082 0.00321077 0)
(1.01254 -0.00365636 0)
(1.02705 0.00466495 0)
(1.02155 0.018196 0)
(1.02502 0.0107101 0)
(0.0197855 1.83379 0)
(0.0105633 1.8408 0)
(0.0651527 1.86731 0)
(0.0583414 1.87546 0)
(0.103022 1.69098 0)
(0.101713 1.66666 -2.96206e-19)
(0.0754692 1.72633 0)
(0.0370664 1.71496 1.5849e-19)
(0.0335213 1.75804 -1.6336e-19)
(0.00876738 1.79048 0)
(0.00169831 1.78849 0)
(0.0067169 1.79326 0)
(0.00465085 1.81135 0)
(-0.0018024 1.75801 -5.16683e-20)
(0.00703009 1.76498 6.52323e-20)
(0.00189432 1.77072 7.94912e-20)
(0.00807303 1.76919 0)
(0.0134364 1.77084 -9.48588e-20)
(0.0143708 1.76953 -6.37666e-20)
(-0.00165919 1.75608 4.01239e-20)
(0.000868927 1.75731 -8.58401e-20)
(-0.00114642 1.76397 -9.78226e-20)
(1.00238 0.0226616 4.54029e-19)
(1.00325 0.0174314 -5.80699e-19)
(0.998603 0.00605121 -4.8491e-19)
(0.970329 0.00392425 6.10035e-19)
(1.0391 0.00465232 0)
(1.04742 -0.0134906 0)
(1.05359 0.0304765 0)
(1.04807 0.00382675 0)
(1.06389 0.0217315 0)
(1.07656 0.0749467 0)
(1.06427 0.0321465 0)
(1.08763 0.0341156 0)
(-0.00696523 1.78234 -1.9048e-21)
(-0.0146408 1.75915 0)
(-0.0107995 1.7664 0)
(0.00374739 1.78523 1.39761e-20)
(-0.00328787 1.7862 -8.48397e-22)
(0.00802558 1.72287 2.15269e-20)
(0.00223924 1.73309 -2.12591e-20)
(-5.42954e-06 1.76731 0)
(0.00438485 1.76236 0)
(0.00425733 1.76131 0)
(-0.00421948 1.78354 0)
(0.000959838 1.77927 0)
(0.368515 1.91885 3.94665e-19)
(0.364791 1.93445 1.86761e-19)
(0.304375 1.5528 -1.76101e-19)
(0.125091 1.57753 4.5521e-19)
(0.266215 1.64736 1.14347e-19)
(1.00084 0.016148 0)
(0.987225 -0.0127378 0)
(0.988637 -0.00625337 0)
(1.03465 -0.00991385 0)
(1.0178 -0.0225419 0)
(1.01469 -0.0235345 0)
(0.993179 -0.0012164 0)
(1.01464 0.0229397 0)
(1.0113 0.00911784 4.35688e-19)
(1.01648 0.013817 -5.68851e-19)
(1.01299 -0.00259674 -4.42088e-19)
(1.01494 -0.00810426 5.62964e-19)
(0.695525 1.558 0)
(0.61636 1.67135 2.95473e-19)
(0.799044 1.32629 1.60121e-19)
(0.851726 1.25175 -2.11871e-19)
(0.786328 2.17562 -8.49858e-19)
(0.84246 0.111199 2.8016e-19)
(1.10479 0.0818778 0)
(1.12595 0.164631 1.08085e-20)
(1.13224 0.138045 1.31216e-21)
(0.967695 0.106805 0)
(0.235664 2.93107 6.97518e-20)
(0.179233 2.8445 -1.03323e-18)
(0.0352924 2.33153 7.1901e-19)
(0.101134 0.21479 -2.8737e-19)
(0.338177 3.52784 -5.53052e-19)
(0.230953 3.38146 0)
(0.262922 3.48931 7.20182e-19)
(0.339277 3.11486 -7.52254e-19)
(0.473928 3.32981 0)
(0.0151572 3.11321 3.60697e-20)
(0.0249163 3.12557 -4.3701e-19)
(0.0246276 3.12214 6.43236e-19)
(0.0474201 3.13508 0)
(0.0455667 3.14879 0)
(0.826344 2.42099 0)
(0.462869 0.609796 4.90901e-21)
(0.967455 1.04451 -1.0482e-19)
(0.910256 1.07061 0)
(0.685033 0.998909 1.20339e-20)
(0.959545 0.837635 1.295e-20)
(0.442791 0.600075 -5.94337e-19)
(0.715382 0.342021 -2.39683e-20)
(0.719098 0.313321 2.01045e-19)
(0.624287 0.439202 1.69009e-20)
(0.591548 0.428209 -7.14593e-19)
(0.703739 0.365293 0)
(0.703362 0.418585 3.17007e-19)
(0.703786 0.402189 0)
(0.66471 0.389291 0)
(0.673934 0.367175 0)
(0.746646 0.574022 9.57533e-20)
(1.17006 0.264225 1.23131e-20)
(1.14946 0.408301 0)
(1.1746 0.367596 0)
(0.793766 0.227353 3.18408e-19)
(0.79357 0.475379 -1.60757e-19)
(0.720361 0.450845 2.53146e-19)
(0.867173 0.410693 -2.64954e-19)
(1.01622 0.00765153 3.10512e-19)
(1.01956 -0.00837186 -3.11416e-19)
(1.01905 -0.00258892 0)
(1.01753 0.00139539 0)
(1.02089 0.00590348 -2.95721e-19)
(1.02114 -0.00903739 2.88253e-19)
(1.01013 -0.000568292 0)
(1.00406 0.00111485 0)
(1.02524 -0.00407467 0)
(1.02007 -0.00926765 0)
(1.01275 0.00325946 0)
(1.01658 0.00582702 0)
(0.00949981 1.8389 0)
(0.0122173 1.83397 0)
(0.14025 1.84539 -1.68875e-20)
(0.216562 1.91882 1.25384e-19)
(0.119762 1.9217 2.6682e-19)
(0.127911 1.94445 -4.30024e-19)
(0.18077 1.86653 0)
(0.151465 1.75107 -1.11719e-19)
(0.127701 1.77624 0)
(0.262466 1.67073 -1.64743e-19)
(0.184693 1.61753 5.37166e-19)
(0.191522 1.78312 9.70822e-20)
(0.231765 1.85825 3.69193e-20)
(0.196294 1.86191 -2.96414e-20)
(0.275842 1.80321 -8.86527e-20)
(0.222624 1.75345 0)
(0.225042 1.75722 8.2465e-20)
(0.039206 1.76725 -4.6845e-20)
(0.0205007 1.74395 0)
(0.031565 1.72304 1.85305e-19)
(0.0337426 1.74034 0)
(0.0154754 1.71866 -1.76116e-19)
(0.00280018 1.72961 0)
(0.002679 1.7656 -3.83269e-20)
(0.00497082 1.76009 0)
(0.00803162 1.76859 0)
(0.00900292 1.76499 4.27488e-20)
(0.00604758 1.76654 -1.76174e-21)
(0.0286543 1.7704 1.94275e-19)
(0.0144586 1.77129 1.30462e-21)
(-0.00487525 1.75541 3.10815e-20)
(-0.00624017 1.75345 2.18751e-20)
(-0.000416637 1.7879 0)
(-0.00983037 1.78115 0)
(0.0121302 1.75315 1.10125e-19)
(0.0189471 1.76092 8.60652e-20)
(0.0120434 1.75204 -1.15635e-19)
(0.0239588 1.76653 0)
(0.0231683 1.76346 -5.93324e-20)
(0.0162748 1.76157 2.8607e-20)
(0.00466688 1.75441 -8.61475e-21)
(-0.00455736 1.75427 -3.76246e-20)
(0.0100512 1.75919 -1.44356e-20)
(0.0127294 1.76653 5.78663e-20)
(1.01487 -0.00585994 -2.92048e-19)
(1.00779 0.0144542 3.02251e-19)
(1.0118 0.000631624 0)
(0.981093 0.0619047 4.41472e-19)
(0.964654 0.0237994 -5.0101e-19)
(0.935984 0.0180519 5.79861e-19)
(0.974315 0.0646778 -5.76438e-20)
(1.03061 0.0103463 0)
(1.0401 -0.00608808 2.64024e-19)
(1.03388 -0.0001937 -2.63031e-19)
(1.01037 0.0249341 -1.51836e-20)
(1.01723 0.0184887 1.35658e-19)
(0.995782 0.0421732 0)
(0.983815 0.0347349 -4.74627e-20)
(1.0129 0.0282625 0)
(1.00066 0.024031 0)
(1.01217 0.00378187 0)
(1.01635 -0.000558677 0)
(1.00538 0.0123925 9.95785e-20)
(1.00163 0.0119474 -2.12844e-19)
(0.968726 0.0126308 -1.05704e-19)
(0.973136 0.00986696 -1.16089e-19)
(0.991306 0.0591061 2.10419e-19)
(1.04594 0.0565738 0)
(1.02962 0.0918236 0)
(0.0209487 1.76789 -2.98664e-20)
(-0.00902028 1.75748 -2.51192e-21)
(0.00794731 1.74886 0)
(-0.00221824 1.78062 3.05109e-20)
(-0.0104926 1.78408 3.96849e-21)
(-0.010124 1.7854 -3.85978e-21)
(0.0120969 1.77008 5.59352e-20)
(-0.00112329 1.75795 -3.10795e-21)
(0.00086255 1.75824 1.68943e-20)
(0.00880725 1.77739 -3.0008e-20)
(0.0045652 1.76696 3.43263e-20)
(0.00602743 1.74175 2.05511e-21)
(0.0202226 1.73053 3.24638e-20)
(0.359387 1.80627 -1.62959e-19)
(0.282923 1.79753 1.09545e-19)
(0.619569 1.77268 -2.84085e-19)
(0.504156 1.88823 -1.8685e-19)
(0.521576 1.85068 0)
(0.343616 1.55081 1.82361e-19)
(0.359262 1.54152 2.6128e-19)
(0.180482 1.57586 3.91505e-20)
(0.174269 1.57567 -6.0339e-19)
(0.251474 1.57175 4.80813e-19)
(0.275337 1.58447 0)
(0.202473 1.58026 -3.81431e-19)
(0.105468 1.64575 7.57837e-19)
(0.113062 1.60122 -5.25537e-20)
(0.0626271 1.61167 -1.04812e-18)
(0.747065 1.46954 8.71554e-19)
(0.525483 1.50848 0)
(1.03511 -0.00558303 9.06396e-21)
(1.02338 0.0356746 -7.84282e-21)
(1.01786 0.0352487 -1.41534e-19)
(1.01201 0.0218085 1.48021e-19)
(1.02451 0.00363881 0)
(0.443122 1.52311 0)
(0.324354 1.4124 0)
(0.523399 1.1246 0)
(0.298443 1.31586 0)
(0.77982 2.11117 2.27353e-19)
(0.865348 1.84804 0)
(0.563162 2.01285 7.2294e-21)
(0.52361 1.67866 0)
(0.63857 1.70839 -6.71555e-19)
(0.638975 1.78799 4.22241e-19)
(0.857526 0.143375 0)
(0.835816 0.165848 8.13882e-20)
(0.918283 0.104781 4.04952e-19)
(0.864891 0.0994678 -1.59178e-19)
(0.857236 0.0694738 -5.06864e-19)
(0.989631 0.200238 -2.57427e-19)
(0.924942 0.270709 -1.28609e-20)
(0.83878 0.262661 3.57247e-19)
(0.915342 0.211593 2.87917e-19)
(0.938345 0.142152 -5.09653e-19)
(0.907265 0.143064 6.55216e-20)
(0.85768 0.227826 -1.33615e-19)
(0.908471 0.185285 0)
(0.957641 0.153207 2.4611e-19)
(0.953857 0.153658 0)
(0.956315 0.200145 0)
(1.06042 0.0921628 9.23694e-20)
(0.977325 0.139023 -1.35036e-20)
(0.988837 0.192673 -4.79976e-20)
(1.03758 0.199515 0)
(1.014 0.0403729 2.25718e-19)
(1.00703 0.0469005 2.81599e-19)
(1.01268 0.0462474 -2.22669e-19)
(1.01525 0.0589368 -1.89045e-19)
(0.992352 0.0655668 -3.10762e-19)
(0.952945 0.0681416 0)
(0.948504 0.0582092 0)
(0.927878 0.0618782 -2.07639e-19)
(0.909562 0.0680615 8.64183e-20)
(1.00726 0.0810076 2.55527e-19)
(0.986471 0.0919316 -2.75148e-19)
(0.99602 0.0978432 2.42304e-19)
(0.99474 0.108372 0)
(0.999206 0.0821316 0)
(0.997811 0.079546 -1.15427e-19)
(1.00964 0.0824122 -2.05359e-19)
(0.0404014 1.79695 2.00337e-19)
(0.16377 2.43465 -1.72812e-19)
(0.664395 2.74001 1.1336e-19)
(0.812496 3.17287 -1.24498e-19)
(0.86686 2.48059 1.04085e-18)
(0.90043 2.5472 -4.75408e-19)
(0.839327 1.93301 -1.283e-20)
(0.777537 2.95363 3.15003e-19)
(0.799005 2.85908 -3.34998e-19)
(0.855752 3.33122 -3.22016e-19)
(1.08202 2.9494 4.49021e-19)
(1.0837 2.82878 0)
(0.478008 0.532055 2.06185e-20)
(0.46348 1.26098 4.48284e-19)
(0.581135 0.626862 3.71657e-19)
(0.536965 0.446865 5.08514e-19)
(0.588745 0.450622 4.00436e-19)
(0.599205 0.468773 -5.73067e-19)
(0.577255 0.542176 4.61274e-19)
(0.545171 0.502092 -2.25975e-19)
(0.52339 0.48965 5.20377e-19)
(0.793933 0.261526 -1.79454e-19)
(0.758587 0.29141 0)
(0.763276 0.271214 1.1346e-20)
(0.688191 0.47944 1.58959e-19)
(0.663932 0.441078 -5.9195e-19)
(0.614142 0.477622 3.6443e-20)
(0.646686 0.462113 0)
(0.596248 0.590126 4.79155e-20)
(0.717736 0.776284 3.63381e-20)
(0.63082 0.764627 -4.75943e-20)
(0.737891 0.746369 -2.90403e-20)
(0.801449 0.850772 3.49422e-21)
(0.799821 0.835526 -3.55928e-21)
(0.809159 0.542867 -1.84102e-19)
(0.850296 0.606098 2.73432e-20)
(0.908447 0.676698 0)
(0.914552 0.654978 -2.70056e-20)
(0.946656 0.286194 6.65466e-20)
(1.07986 0.276996 1.84803e-20)
(0.990189 0.234699 1.04254e-19)
(0.92391 0.349883 -1.50634e-19)
(0.972899 0.398365 0)
(1.01112 0.379889 0)
(0.849951 0.337157 1.34197e-20)
(0.801437 0.301368 0)
(0.82212 0.285812 1.88799e-19)
(0.842445 0.269471 -1.26659e-20)
(0.855426 0.410079 7.25302e-19)
(0.830364 0.454996 1.8045e-19)
(0.816096 0.435856 -2.31375e-19)
(0.751286 0.391941 2.50172e-19)
(0.733608 0.395866 1.62478e-19)
(0.71673 0.402855 -1.59724e-19)
(1.00374 0.00679499 2.41737e-19)
(1.00624 -0.00761794 0)
(1.00586 0.00800066 1.633e-19)
(1.01161 0.00626508 -3.57725e-19)
(1.00992 0.000216094 1.76581e-19)
(1.01396 0.0182048 -3.69704e-19)
(1.00849 0.00351215 0)
(1.00374 -0.00940166 -7.81871e-20)
(1.00778 0.00301797 1.98809e-19)
(1.01354 -0.000211213 -9.94572e-20)
(1.00948 -0.00312838 7.36559e-20)
(0.00679507 1.81718 0)
(0.00873757 1.77176 0)
(0.0114457 1.83072 0)
(0.0119307 1.82643 0)
(0.0288309 1.77732 6.94997e-20)
(0.0252203 1.79938 -1.48222e-20)
(0.0885802 1.7784 -3.7308e-20)
(0.0765579 1.77955 -5.8557e-23)
(0.0204487 1.76588 -7.37503e-20)
(0.0187289 1.76741 5.45212e-20)
(0.0293577 1.77568 -2.1658e-20)
(0.0148726 1.78724 -2.44863e-20)
(0.0159404 1.78609 -2.30394e-21)
(0.00970668 1.77477 -7.88787e-21)
(0.0408657 1.72409 -2.01004e-19)
(0.0648252 1.72271 0)
(0.0792594 1.71788 1.27448e-19)
(0.0951314 1.76892 8.03836e-20)
(0.184425 1.70766 -8.54344e-20)
(0.138773 1.66307 0)
(0.12831 1.63812 -5.49647e-19)
(0.168107 1.64686 4.00076e-19)
(0.16535 1.72283 -2.39995e-19)
(0.124924 1.71307 1.31375e-19)
(0.105335 1.6826 0)
(0.0161889 1.75247 -1.27721e-19)
(0.00301457 1.75424 -1.74539e-19)
(0.00529095 1.75284 0)
(0.0249852 1.75987 -4.30861e-21)
(0.0364327 1.7641 6.11133e-20)
(0.0070138 1.78062 7.12875e-21)
(0.00760386 1.78642 -1.08309e-19)
(0.00355614 1.78457 2.71069e-20)
(-0.00389772 1.76603 4.24761e-20)
(0.00298831 1.76461 0)
(-0.0016259 1.78699 0)
(0.00287864 1.78209 3.36003e-20)
(0.00151614 1.78628 -1.03015e-20)
(-0.000146421 1.78698 0)
(-0.00494477 1.78458 2.82002e-20)
(-0.00160253 1.779 -5.4459e-20)
(0.997359 0.0177874 0)
(1.00352 0.0281772 -2.3448e-20)
(1.00782 0.00910705 -1.69764e-19)
(1.01293 0.0147338 0)
(1.01925 0.0307008 0)
(0.995307 0.00363911 -9.0923e-21)
(0.994065 0.00606047 2.77903e-19)
(1.00092 0.0116942 3.53066e-19)
(1.01363 0.0113478 0)
(1.00973 0.0108158 0)
(1.00106 0.0134505 1.77544e-19)
(1.00193 0.013616 0)
(1.00121 0.0150878 0)
(0.0154779 1.74362 0)
(0.0232305 1.74765 1.62654e-22)
(0.022149 1.75913 1.34676e-20)
(0.0028218 1.78307 0)
(0.00770844 1.75591 1.6437e-20)
(0.00725984 1.76105 -1.26653e-20)
(-0.00321561 1.78427 0)
(0.381801 1.68062 0)
(0.320126 1.76001 -2.54332e-19)
(0.291232 1.73183 0)
(0.411348 1.74664 1.9864e-19)
(0.435427 1.79291 0)
(0.424712 1.7995 -4.11013e-20)
(0.75915 1.63019 -2.03501e-20)
(0.774695 1.45127 -1.04447e-18)
(0.829417 1.42842 1.19057e-18)
(0.583414 1.5099 2.72833e-19)
(0.539409 1.56422 0)
(0.619642 1.57273 0)
(0.712156 1.4786 0)
(0.642951 1.49125 -9.593e-19)
(0.386693 1.63764 -5.33628e-19)
(0.482558 1.56209 -1.38423e-19)
(0.51861 1.63073 1.12982e-19)
(0.384515 1.53848 0)
(0.478017 1.53811 0)
(0.408079 1.53911 -3.09392e-19)
(0.460166 1.5786 0)
(0.172645 1.15875 0)
(0.0575618 0.83869 5.87711e-19)
(0.348085 0.593446 3.39955e-20)
(-0.119139 1.44773 0)
(-0.0322257 1.56061 -8.34983e-19)
(0.620647 0.768279 2.70496e-21)
(0.59848 0.999826 0)
(0.637208 0.96189 -1.38034e-20)
(0.441032 0.817942 0)
(0.472107 0.818019 0)
(0.764458 2.22339 -3.34284e-20)
(0.653966 2.57078 -1.77344e-19)
(0.455088 2.40288 3.0517e-19)
(0.512882 2.21591 -1.3979e-19)
(0.82463 1.98498 0)
(0.84026 1.90245 1.77998e-19)
(0.869055 1.77628 -6.29065e-20)
(0.908223 1.59418 -2.78793e-21)
(0.441289 1.84749 0)
(0.178753 1.773 -1.77245e-19)
(0.255787 1.71214 0)
(0.881483 0.202241 0)
(0.837179 0.16531 0)
(0.802906 0.173046 0)
(0.859221 0.218207 -2.96925e-19)
(0.811087 0.212797 1.87467e-19)
(0.900574 0.0712297 -1.79524e-19)
(0.920656 0.0853224 0)
(0.922139 0.0876078 7.90126e-20)
(0.870992 0.0738126 3.1636e-19)
(0.87411 0.0718816 -1.9632e-19)
(0.925047 3.4686 -7.73531e-19)
(0.891792 3.42328 0)
(0.959772 3.45298 -1.81287e-18)
(0.555192 3.65395 1.78509e-18)
(0.694118 3.31448 7.2248e-19)
(0.473503 0.659993 -6.06563e-19)
(0.15097 1.13151 0)
(0.647861 0.45804 -4.94153e-20)
(0.616954 0.494304 -8.07696e-21)
(0.675781 0.567203 -1.09785e-19)
(0.603526 0.542168 9.32067e-20)
(0.625594 0.514361 2.16912e-19)
(0.66415 0.500312 0)
(0.676332 0.553288 0)
(0.627221 0.52256 0)
(0.979395 0.550494 -3.55626e-20)
(0.824711 0.464414 -1.75314e-19)
(0.819984 0.511227 9.84251e-20)
(0.855416 0.488239 -1.32752e-19)
(1.00083 0.448139 0)
(1.04181 0.513726 -1.07076e-20)
(0.769081 0.366787 -3.78905e-19)
(0.785065 0.359692 -4.33278e-19)
(0.750978 0.367246 2.94514e-19)
(0.754483 0.341426 -3.25811e-19)
(0.783959 0.310246 -2.51102e-19)
(0.757235 0.315778 3.09499e-19)
(1.01351 -0.00647585 -1.88353e-19)
(1.01973 -0.00227845 3.7627e-19)
(0.995118 0.0126765 2.38924e-19)
(1.00088 0.0284495 -2.81194e-19)
(0.988543 0.0237907 0)
(0.995079 0.00357962 -4.4339e-19)
(0.0486087 1.78401 2.73701e-20)
(0.0468057 1.76943 0)
(0.058139 1.77097 2.49353e-19)
(0.0663352 1.77901 -2.26081e-19)
(0.0663345 1.78632 6.90381e-20)
(0.0529893 1.76736 0)
(0.00314933 1.74643 0)
(0.00271552 1.77221 -1.11634e-20)
(0.00320323 1.77876 1.01598e-20)
(0.00364214 1.76963 5.03591e-21)
(0.00758005 1.74093 -1.95778e-20)
(0.00577014 1.74435 1.22623e-20)
(0.448375 1.75624 -6.2668e-19)
(0.429944 1.70024 6.42836e-19)
(0.407491 1.72204 -1.60456e-19)
(0.42896 1.70673 2.56628e-20)
(0.471383 1.61947 0)
(0.477644 1.75992 1.11684e-19)
(0.478558 1.70496 -1.09798e-19)
(0.413678 1.73586 1.55548e-19)
(0.420784 1.72501 0)
(0.376992 1.72642 0)
(0.375997 1.58924 8.22784e-19)
(0.385398 1.5603 1.24991e-18)
(0.418215 1.58359 -8.49624e-19)
(0.358435 1.57094 -1.54304e-19)
(0.309077 1.58393 2.57045e-19)
(0.248553 1.56745 -6.30353e-19)
(0.859802 1.43916 -6.60644e-19)
(0.903335 1.52684 0)
(0.893439 1.44525 -5.159e-19)
(0.801282 1.78206 0)
(0.810828 1.70213 0)
(0.582011 2.83926 8.24019e-19)
(0.742704 3.39219 9.19133e-19)
(0.657151 3.33358 -8.02403e-19)
(0.639087 1.07527 0)
(0.678846 0.926259 1.52691e-19)
(0.515151 0.927856 5.7933e-19)
(0.65127 2.57795 0)
(0.661572 3.02542 -5.696e-19)
(0.598098 2.77758 0)
(0.60475 0.536293 -1.08797e-19)
(0.70988 0.64154 2.23642e-19)
(0.725064 0.620399 -2.37392e-19)
(0.667237 0.513162 -2.14338e-20)
(0.681638 0.556071 -1.07454e-19)
(0.611159 3.17513 -6.7661e-19)
(0.594398 3.10407 6.22952e-19)
(0.558859 2.81494 -1.22166e-18)
(0.378951 2.67053 7.88487e-19)
(0.186202 2.54933 2.44416e-19)
(0.461943 2.91555 -1.59583e-19)
(0.403057 2.77906 -2.69914e-19)
(0.317964 2.61205 -3.52879e-20)
(0.175468 2.57449 -9.49881e-21)
)
;

boundaryField
{
    wall-4
    {
        type            noSlip;
    }
    velocity-inlet-5
    {
        type            fixedValue;
        value           uniform (1 0 0);
    }
    velocity-inlet-6
    {
        type            fixedValue;
        value           uniform (0 3 0);
    }
    pressure-outlet-7
    {
        type            zeroGradient;
    }
    wall-8
    {
        type            noSlip;
    }
    frontAndBackPlanes
    {
        type            empty;
    }
}


// ************************************************************************* //
