/*--------------------------------*- C++ -*----------------------------------*\
  =========                 |
  \\      /  F ield         | OpenFOAM: The Open Source CFD Toolbox
   \\    /   O peration     | Website:  https://openfoam.org
    \\  /    A nd           | Version:  9
     \\/     M anipulation  |
\*---------------------------------------------------------------------------*/
FoamFile
{
    format      ascii;
    class       volScalarField;
    location    "1";
    object      p;
}
// * * * * * * * * * * * * * * * * * * * * * * * * * * * * * * * * * * * * * //

dimensions      [0 2 -2 0 0 0 0];

internalField   nonuniform List<scalar> 
918
(
1.73947
0.765956
0.335702
1.74515
0.024266
0.68462
-0.29115
1.25165
1.80304
0.252978
0.212183
1.4727
0.337096
0.24583
-0.327762
0.1046
1.48108
-0.419849
1.53691
0.138908
0.0076669
1.86546
1.6504
1.4952
1.47074
0.00188365
0.384953
0.0855135
-0.105074
0.000979994
0.0738832
0.10094
0.0392453
0.444494
0.61349
0.71549
1.49719
0.952018
-0.0711575
-0.0959148
-0.179918
-0.411885
1.29006
1.31977
0.565532
1.2003
1.13515
1.54231
1.7232
1.81057
1.65525
1.71892
1.86948
0.563761
0.231522
0.171783
0.283564
0.264459
0.308071
0.22961
0.225713
0.246309
0.233266
1.39844
1.47171
1.47203
1.48692
1.472
0.721762
0.735033
0.831791
0.242279
0.456558
0.327909
0.433639
0.230283
0.262434
0.259545
0.252856
-0.398047
-0.840023
0.00507292
0.0499074
-0.00261697
0.120716
0.132167
1.48091
1.4897
1.45283
1.44818
0.999501
-0.264063
-0.474395
1.5547
1.56426
1.82042
1.66825
1.67868
1.55637
0.147396
0.139102
0.127544
0.164631
0.156464
0.379375
0.614779
1.49425
1.55555
1.46119
1.48489
1.47692
1.18845
1.52666
1.50728
0.226869
0.321517
0.0864763
0.181448
0.377035
0.33751
0.447463
0.43724
-0.0827519
0.00314205
0.125231
0.0514291
0.109047
1.49307
1.47521
1.5183
1.50164
1.52454
0.849076
0.770567
1.01742
1.08504
0.167158
0.150153
-0.343747
-0.322351
-0.49649
1.20406
1.35139
1.38251
0.379678
0.560431
0.362475
0.672201
0.657558
1.52583
1.54509
1.52554
1.56243
1.56107
1.5736
1.73248
1.70749
1.83033
0.597319
0.669747
0.560508
0.500432
-0.0775552
0.0507528
-0.0773567
0.237688
0.277151
0.326652
0.345618
0.342851
0.305246
0.261646
0.251227
0.267166
0.191652
0.171267
1.39096
1.37528
1.41419
1.4305
1.49616
1.48852
1.48461
1.49645
0.449717
0.465157
0.413573
0.357006
-1.33837
-3.0798
0.0955636
0.14861
0.00792468
-0.00618316
0.00126602
-0.0149105
-0.00266954
-0.0314057
0.229091
0.185206
0.144297
0.194373
1.49552
1.51541
0.997352
1.05279
0.915405
0.915912
1.55732
1.57321
1.57494
1.57219
0.168867
0.159789
0.173975
1.06414
0.84041
0.94632
1.15006
1.05464
1.24372
1.28601
1.50836
1.50089
1.52193
0.175135
0.239419
0.649344
0.368587
0.543823
0.462766
0.387676
0.476877
0.312676
1.43775
1.46906
1.46619
1.52768
1.5313
1.54036
1.5042
1.50574
1.50096
0.602956
0.384396
1.19832
1.15415
1.10185
1.15992
1.20948
1.212
1.42784
1.38972
1.4141
0.837653
0.826768
0.435035
0.415981
1.32452
1.35486
1.33815
0.398785
0.290504
0.400358
0.372748
0.341121
0.410982
0.379675
-0.352596
0.0374465
0.217393
0.206078
0.193702
0.256736
0.286953
0.266323
1.04362
1.09861
0.703995
0.832984
0.802832
0.0670713
0.181362
0.294044
0.145288
0.213353
0.348441
0.278695
1.17519
1.17617
1.2148
1.14733
1.17959
1.01305
0.901348
0.888029
0.363011
0.384974
0.36595
1.08722
1.12835
1.12699
1.52952
1.53192
-0.0686442
0.0442553
1.62799
1.72497
-0.069417
-0.00979544
0.226608
0.21509
0.928934
1.58141
1.54995
1.59574
0.217769
0.474472
0.203173
0.244244
0.179225
1.44108
1.39666
1.32512
-0.0219422
0.107379
0.102694
0.0452584
1.62629
1.58101
1.64556
1.64578
1.62858
0.0454877
0.00789008
0.0500168
0.0607351
0.143978
0.169886
1.51721
1.48723
0.209395
1.63798
1.62955
1.60888
1.62801
1.645
1.59102
0.0791075
0.0895116
0.134279
1.13599
1.2373
0.251485
-0.0439136
0.363727
0.207049
0.0968639
0.235042
0.229028
0.239738
0.18399
1.33696
1.22412
1.02548
0.811634
1.02615
1.00309
1.5869
1.5923
1.57342
1.55431
1.6157
1.52132
1.66238
1.59187
1.61636
1.67002
0.278153
0.331393
0.306383
0.154727
0.56264
0.658114
0.475863
0.533658
0.30946
0.178505
0.235316
0.186923
0.241143
0.2256
0.295939
0.267579
0.349195
0.25802
0.294718
0.184318
0.379951
0.247329
1.41176
1.4633
1.43924
1.49816
1.41453
1.44886
1.37716
1.39921
1.41094
1.30136
1.36065
1.34444
0.0391754
0.0892765
0.101113
0.13079
0.160561
0.0255964
0.0775637
0.0489985
0.0649149
0.0365184
0.0774709
0.104278
0.134932
-0.0612756
0.95339
0.807211
0.399766
1.52605
1.60487
1.5516
1.62628
1.65214
1.67972
1.65142
1.5947
1.50109
1.53345
1.49582
1.51194
0.278842
0.167211
0.349138
0.377862
0.967058
1.48462
1.28788
1.19763
1.21065
1.34037
0.802139
0.546227
-0.14745
-0.486616
0.212822
0.12282
0.132691
0.431996
0.547934
0.173228
0.233212
0.336879
0.244625
0.242325
0.62391
1.2769
0.622345
0.597312
0.909303
0.831676
0.625594
1.35413
1.37938
1.18656
1.11251
1.30542
1.26302
1.27688
1.29067
1.30367
1.32191
1.16689
1.09306
1.0393
1.42605
1.3158
1.33079
1.27334
1.57292
1.60675
1.5515
1.53027
1.58483
1.51494
1.53047
1.48777
1.53358
1.58086
1.57421
1.52796
0.340066
0.286487
0.339647
0.17345
0.293154
0.16918
0.324151
0.448966
0.334155
0.461468
0.666088
0.42841
0.248896
0.375905
0.308655
0.573835
0.477445
0.435812
0.350209
0.410624
0.420411
0.450823
0.420699
0.260633
0.271758
0.34073
0.206797
0.331168
0.306687
0.395822
0.210364
0.315909
0.220405
0.174399
0.242518
0.372354
0.283134
0.301881
0.106335
0.0972827
-0.0309348
0.0625698
0.328941
0.297902
1.50436
1.47012
1.48287
1.45889
1.51748
1.48066
1.36801
1.53074
1.53879
1.5012
1.40754
1.37857
1.37482
1.38672
1.42632
1.41159
1.53256
1.51766
1.43185
1.45161
1.36446
1.39552
1.35587
1.38282
1.38086
-0.0239892
0.121713
0.046642
0.0626707
0.102396
0.163054
0.255741
0.12691
0.240441
0.235388
0.196054
0.11904
0.156006
0.311512
0.419805
0.243234
0.073609
-0.00910272
0.961913
1.01726
0.873928
0.775755
0.851392
0.920984
0.973648
0.741064
0.742443
0.83316
1.11664
1.07222
1.57172
1.55043
1.56749
1.60017
1.56643
0.461799
0.673144
0.701683
0.910993
0.985409
1.00501
0.855519
0.85332
0.900927
0.94917
1.46041
1.49011
1.45905
1.49708
1.48748
1.25767
1.36412
1.36152
1.50485
1.39316
1.39625
1.49099
1.43746
1.34959
1.34929
1.38772
1.35995
1.35146
1.32737
1.32934
1.42658
1.399
1.42202
1.38707
1.43713
1.36844
1.46297
1.52055
1.47535
1.32999
1.33476
1.37101
1.37598
1.35436
1.35841
1.33982
0.869006
0.95323
0.873941
0.839002
0.893817
0.722285
0.695643
0.824488
0.844024
0.606517
0.516418
0.185751
1.2123
0.699155
0.526368
0.0818914
1.06266
1.13532
1.06696
0.895219
0.919952
1.40558
1.39889
1.42357
1.29775
1.24982
1.21858
1.21812
1.42061
1.17477
1.10772
1.17086
0.97629
1.0573
1.23225
1.16796
1.11907
1.15694
1.32181
1.19234
1.20836
1.29977
1.18249
1.20658
1.30808
1.35882
1.41027
1.35855
1.24003
1.29247
1.27055
1.3022
1.33696
1.32453
1.53434
1.5216
1.5103
1.53799
1.51599
1.53188
1.47508
1.54746
1.57907
1.57587
1.58833
0.190905
0.276493
0.308211
0.224728
0.301381
0.283153
0.357251
0.307317
0.36251
0.395177
0.319648
0.332484
0.387844
0.321127
0.399584
0.425313
0.366363
0.325476
0.65762
0.707955
0.683107
0.676167
0.646696
0.599372
0.667963
0.263548
0.357319
0.307591
0.253947
0.281786
0.18709
0.244167
0.159869
0.293443
0.254314
-0.0135996
0.169389
0.219488
0.0773612
0.154801
0.192121
1.4464
1.46056
1.43592
1.42315
1.40814
1.43949
1.47499
1.5268
1.52388
1.50535
1.50872
1.48985
1.49
0.154115
0.31344
0.332456
0.19025
0.168424
0.0513257
0.0312653
0.807002
0.549414
0.567402
0.479689
0.307805
0.399388
1.03373
1.11562
1.12305
1.10037
1.02985
0.986032
1.07573
1.15236
0.877988
0.965136
0.918688
0.983821
1.01687
1.05652
0.988463
0.804798
1.07039
1.23346
0.777971
0.849716
1.00175
1.00366
1.03256
0.996657
1.1452
0.960933
0.914346
0.886955
0.899391
1.00774
0.989982
1.04983
1.09272
0.753073
0.801922
0.775191
1.42564
1.46199
1.47377
1.43082
1.45144
1.451
1.42053
1.46791
1.50554
1.51421
0.272487
0.421626
-0.0781591
0.498689
0.749844
1.41235
1.1195
1.41513
1.37997
1.03567
1.17561
1.26098
1.2539
1.31898
1.2487
1.15225
1.21683
1.16172
1.22802
1.1087
1.06959
1.35615
1.3219
1.36467
1.36053
1.33353
1.3769
1.45784
1.54538
1.45826
1.52209
1.50007
1.53723
0.393415
0.306864
0.364196
0.367394
0.359808
0.297694
0.0660905
0.119949
0.338426
0.273619
0.200291
0.2454
0.723783
0.745517
0.548589
0.693739
0.506002
0.34363
0.378571
0.455025
0.580243
0.656772
0.928098
0.949656
0.965823
0.979108
0.847625
1.01036
1.11405
1.09188
1.13197
1.02046
1.03528
1.02635
0.600362
0.775549
1.37915
1.6489
1.40746
1.21461
0.950713
1.03928
1.37008
1.27102
1.277
1.3466
1.28797
0.892562
0.921787
0.980339
0.984656
0.981266
0.93612
0.897916
1.00068
1.02243
)
;

boundaryField
{
    wall-4
    {
        type            zeroGradient;
    }
    velocity-inlet-5
    {
        type            zeroGradient;
    }
    velocity-inlet-6
    {
        type            zeroGradient;
    }
    pressure-outlet-7
    {
        type            fixedValue;
        value           uniform 0;
    }
    wall-8
    {
        type            zeroGradient;
    }
    frontAndBackPlanes
    {
        type            empty;
    }
}


// ************************************************************************* //
