/*--------------------------------*- C++ -*----------------------------------*\
  =========                 |
  \\      /  F ield         | OpenFOAM: The Open Source CFD Toolbox
   \\    /   O peration     | Website:  https://openfoam.org
    \\  /    A nd           | Version:  9
     \\/     M anipulation  |
\*---------------------------------------------------------------------------*/
FoamFile
{
    format      ascii;
    class       surfaceScalarField;
    location    "1";
    object      phi;
}
// * * * * * * * * * * * * * * * * * * * * * * * * * * * * * * * * * * * * * //

dimensions      [0 3 -1 0 0 0 0];

internalField   nonuniform List<scalar> 
1300
(
3.75095
5.62643
-6.91214
3.75095
-6.49851
5.62643
-6.42152
6.42152
-1.43604
1.43604
1.88804
1.86292
-5.83108
5.83108
-5.67611
5.67611
-3.07511
3.07511
-5.40494
5.40494
-5.25425
5.25425
3.93717
-3.93717
-5.34134
5.34134
-2.13427
2.13427
-6.44628
6.44628
3.20819
-3.20819
-5.64695
5.64695
-1.72061
1.72061
-0.453517
4.20447
3.29744
3.29744
-2.7532
2.7532
-5.41292
5.41292
6.14267
-6.14267
9.84442
-9.84442
-2.93228
-3.27248
1.35289
-7.93162
-5.14562
-5.14562
-8.48429
8.48429
-2.85786
2.76857
3.21426
-3.21426
-2.64716
2.64716
-6.16767
-0.253849
-6.16767
6.57742
-0.155898
6.57742
-1.64509
0.209055
-1.64509
4.78696
-4.78696
1.22541
0.210631
1.22541
3.21031
-3.21031
-1.88645
3.77449
1.8645
-1.84585
6.05032
-1.90511
3.76802
-4.92488
4.92488
-5.99398
0.162903
-5.99398
5.87277
-0.0416981
5.87277
-5.55998
5.55998
-5.69931
0.0231986
-5.69931
5.57932
0.0967923
5.57932
3.31006
-3.31006
-3.13456
0.0594541
-3.13456
3.08182
-0.00671269
3.08182
0.25854
5.36789
-5.88497
8.65354
-5.36789
-0.0370467
5.35277
0.0521705
5.35277
-5.23049
-0.0237589
-5.23049
5.18146
0.0727967
5.18146
3.74345
0.193721
3.74345
-4.24423
0.307055
-4.24423
-3.19812
-3.31045
-5.42413
0.0827815
-5.42413
-2.20244
0.0681702
-2.20244
2.07088
0.0633854
2.07088
-3.97428
3.97428
-6.66046
0.214178
-6.66046
3.16483
0.0433667
3.16483
1.88461
1.86634
5.63556
-5.63556
2.42737
-5.68043
0.0334766
-5.68043
-5.69083
-4.15359
5.69083
-0.0438788
-1.05993
-0.660673
-1.05993
3.27168
0.0257557
3.27168
2.9415
0.140321
-2.9415
0.188301
3.70208
-3.70208
2.22352
0.529681
2.22352
-5.52781
5.52781
5.2511
-0.06964
-5.2511
-0.161821
6.11373
0.0289361
6.11373
-6.11339
-0.0292821
-6.11339
3.29105
-6.56353
-3.31776
5.22531
0.116036
-5.22531
0.0796926
3.22796
-0.0137059
3.22796
-3.19561
3.19561
-3.19119
-0.0230696
-3.19119
-2.51911
-0.128053
-2.51911
2.71608
-0.0689261
2.71608
-5.69723
-0.470437
-5.69723
-6.66893
0.00847189
6.66893
-0.0915107
3.07245
-3.07245
-1.77749
0.132397
-1.77749
-5.18451
-0.512721
5.18451
-0.397548
-4.59024
-0.196726
-4.59024
-3.22759
0.0364001
3.22759
-0.017281
3.16582
0.105861
-3.16582
-0.0444852
-1.87256
3.73891
-1.87839
3.74289
-4.71309
-0.211794
-4.71309
5.17085
-0.245966
5.17085
6.32981
0.116469
-6.32981
0.33583
5.69547
0.177303
5.69547
-5.50009
-0.0598904
-5.50009
5.60419
-0.0442096
5.60419
5.63689
0.0585804
-5.63689
-0.0624169
5.74331
-0.163992
5.74331
3.33725
-0.0271966
3.33725
-3.22083
-0.0892273
-3.22083
3.17105
-3.17105
3.07276
0.0982973
-3.07276
-0.0618036
-11.1564
11.1271
-0.116849
-11.0396
5.23592
5.23592
3.11095
0.632498
3.11095
-4.67622
0.431987
-4.67621
3.32043
-6.63819
3.23086
-6.42898
3.23526
-11.1669
3.41528
-6.72574
5.56377
-5.56377
5.4001
0.163665
-5.4001
-0.024024
-2.19816
-0.0042835
-2.19816
-3.75229
-0.221995
-3.75229
4.32721
-0.352929
4.32721
-3.22313
3.22313
-3.17512
-0.0480115
3.17512
-0.0102952
5.63715
0.106159
-5.63715
-0.0432758
1.06729
0.158115
-1.06729
0.00735608
3.87087
-0.168785
3.87087
-3.51044
-0.191643
-3.51044
-2.18087
-0.0172828
2.18087
0.0426436
-5.86892
0.341115
-5.86892
-11.0963
0.0567106
-11.0441
-6.05668
-6.05668
2.42761
11.0812
-3.22109
0.000264465
3.22109
0.00686683
3.12587
0.0972687
-3.12587
-0.0697411
-3.17948
0.00842364
3.17948
0.0161293
-2.38417
-0.134936
-2.38417
-2.88551
2.88551
-2.83827
-0.0472475
2.83827
-0.122181
3.21613
-0.143672
3.21613
1.96798
0.102905
-1.96798
0.190488
-4.18158
-0.408657
-4.18158
5.26115
-0.0902996
5.26115
-3.40174
-0.108704
3.40174
-0.0644837
-0.0229813
11.1501
-5.21294
-0.0175577
5.21294
-11.1791
11.1615
-2.5148
0.130627
2.5148
0.596158
5.11199
0.415817
-5.11199
0.435773
5.51319
0.0910014
-5.51319
-0.0505794
-3.55042
-0.201864
-3.55042
-4.53236
-0.180728
4.53236
-0.205147
-11.3111
-0.144234
11.4553
-11.2383
6.01316
0.100578
-6.01316
11.2621
-2.917
-0.155458
2.917
-0.0314831
3.31894
-0.102812
3.31894
4.11401
-0.243142
-4.11401
-0.067569
-5.41067
-0.0894187
5.41067
-0.149522
-3.49884
-0.0515839
3.49884
-0.179903
-4.14577
4.17153
1.90454
-3.36522
-3.19831
-7.51881
1.79026
1.94865
4.21763
-7.05156
-4.11531
-6.97187
6.81946
-6.38369
-6.71986
6.91358
7.65325
-7.84998
-5.79042
5.78013
6.30352
-6.3208
1.84883
1.92565
10.7786
-10.6157
-10.1012
9.88939
10.0804
-10.0572
10.4069
-10.4668
-11.9546
12.0456
-5.58734
5.64679
-6.56623
6.47701
-6.63433
6.56985
-3.22347
-3.20551
8.82193
-8.73915
11.561
-11.5275
-11.1897
11.4039
3.26785
0.903681
3.37371
-1.92334
3.77218
-1.84468
3.74923
3.29591
-6.51938
3.34228
-6.54059
5.9186
5.64235
-5.87472
-1.64408
-5.80852
5.79482
-5.72529
5.74142
10.9836
-11.2375
-1.83556
3.76121
-1.90733
3.85598
-3.38947
-2.40095
3.3461
0.871528
5.49251
3.32942
-5.60855
-1.36332
-7.54993
7.30679
-7.68187
7.49022
0.020519
5.57661
-5.59713
5.43344
-1.86816
7.44477
4.9513
5.38328
5.65228
-5.23646
0.731411
-6.32854
-6.49036
-2.33888
2.47128
2.135
-1.92437
6.55092
1.10233
6.15337
-5.27269
-2.57729
-5.68134
3.81872
1.96141
3.7707
4.02241
2.28111
4.05881
2.9794
-3.06399
0.0845906
-3.02377
6.00318
0.69722
-5.42473
-4.5532
6.94303
3.83557
6.90133
-7.35844
-3.25726
-7.02261
-6.14174
-3.95945
-6.32246
6.5981
3.2913
6.35213
-7.72209
7.57256
6.63334
3.44705
6.73013
-6.6138
-3.4434
-6.67621
10.296
-2.89493
-7.40104
-6.97013
-4.98444
7.01434
3.3926
7.42367
4.6219
7.37309
3.60474
6.69123
-6.99734
2.0129
-3.72601
-1.86133
-3.78781
3.57309
2.0737
3.56637
-4.23025
-2.33598
-4.22999
-4.18061
-2.45373
4.2078
2.2692
-4.25993
-3.42193
4.36864
2.20121
3.25153
-7.36684
3.4742
-6.67971
-6.19389
-2.54525
-6.21792
4.00516
2.66079
-6.66595
-2.51422
10.6989
-5.05655
9.05482
-7.19474
-4.33273
-7.23802
-8.82886
-2.36086
-8.82038
-5.16428
4.96241
-5.63759
5.28466
10.5404
-5.91237
-4.62804
-4.00513
-2.31566
4.04962
-0.675911
-3.6339
3.71849
0.138273
3.8875
4.79118
4.11527
-3.78253
-1.94275
-3.85228
3.76207
1.97935
3.77049
8.53538
2.44824
8.37948
-7.57408
-3.66339
-8.04452
5.51549
-5.64354
2.94898
-2.96626
5.11639
2.37383
-4.94761
-2.60233
5.85732
-3.05113
-2.80619
-12.3033
7.89522
4.40809
-4.85853
0.574905
2.29551
-4.62123
-2.09863
4.31418
1.06911
8.96432
6.86569
-5.25725
5.59837
6.19809
6.12845
-0.361911
3.86552
-3.73489
5.92955
-0.91186
-5.01769
5.78305
-6.29577
-2.26147
-5.95048
3.68901
-0.142396
0.0840839
-0.744757
-1.9443
-0.39458
-1.75382
1.17612
0.958887
1.33423
1.01524
1.45605
-2.50685
0.259271
2.24758
-1.49162
-1.6651
-3.95998
-0.233298
4.19328
5.50087
1.80592
-5.4333
-0.248038
2.65238
-2.589
-1.52553
-2.43445
1.2303
-2.75583
-3.07567
-2.15135
5.22703
-3.31858
-0.533692
3.22131
0.549389
-3.78467
-2.02385
3.80774
0.251062
-2.91574
5.96458
-3.04885
-4.85849
2.5286
3.47457
4.49001
-4.62742
2.31055
2.31687
-1.15285
5.82398
1.07735
6.00128
-8.9646
5.70734
7.82011
3.58379
-7.93658
0.913962
-8.05064
9.35171
-8.36267
-0.989035
4.81068
4.54102
5.31037
5.23004
-3.36626
8.67663
-1.23203
-7.13064
9.28267
-5.69888
5.44575
-11.1446
-10.6758
3.54514
-6.73533
8.38878
-1.65346
-2.37359
-5.3485
9.10891
-0.913331
-8.19558
5.4388
-5.07677
-5.41718
10.494
-7.97171
8.86058
-2.57641
-6.28417
-6.53494
-3.93189
6.62436
0.948205
-9.64569
11.6586
-2.95447
5.8391
0.89103
5.67511
3.94949
-5.94542
1.99594
4.02222
-6.59863
2.37269
-8.31811
-4.74552
9.41967
-4.67415
-7.29077
-6.63942
-0.651345
1.98739
9.67121
-6.60929
5.32059
1.2887
3.20861
0.561881
-3.30691
-0.480903
0.312496
4.45257
-4.76507
3.87887
4.01919
3.48975
0.962818
3.77219
2.02263
-3.77905
-0.450934
-3.844
1.39028
-1.5748
-3.45117
4.84145
-3.93229
0.481117
-2.59832
-3.39325
5.99158
-4.45965
2.84824
3.11635
4.82758
-4.75064
1.35739
-2.3563
-2.39434
2.5749
-4.1497
1.83856
3.00289
4.03977
0.61784
4.61368
4.80599
-7.27447
0.594762
8.1354
-6.77208
1.56721
5.80588
-6.8878
0.248375
-5.96954
1.13762
-6.19417
-5.52833
6.41391
-8.77477
-4.73072
8.12479
0.254696
-8.03328
-0.787108
-3.6896
-1.47468
-3.74118
-1.90543
-3.73216
-5.27168
-1.00826
-4.26343
3.95416
-4.22861
-2.09385
4.43376
0.850903
-4.45888
4.30343
-4.44754
4.34473
0.140819
3.57767
4.25609
1.94042
-2.42482
4.36525
-6.61454
9.06278
-10.6754
4.06089
4.41819
-8.08158
-6.25724
3.40025
2.11524
3.33132
5.57957
-6.95136
1.37179
-6.28708
7.25207
-0.964991
-9.79656
3.50948
-4.21698
2.6072
0.34178
2.60291
0.697688
2.25218
-2.94987
-2.26857
-2.22593
-2.20078
-3.25841
5.45919
0.911927
-3.19963
2.28771
-3.31837
4.23029
-0.130194
-3.06944
4.91106
-2.65888
5.25284
-3.44856
1.80428
3.19844
5.27022
-2.07178
4.09685
-1.72302
1.76389
-3.83567
-1.49452
-2.89725
4.97096
-3.09432
3.57544
-0.20589
3.78133
-3.98089
0.929762
-0.491139
3.52805
3.71635
3.97579
-3.01297
2.66607
-4.38909
-1.16959
-3.77125
-0.768363
-0.833252
-5.05531
5.88856
4.83751
-5.67076
-2.78759
5.54407
-2.75648
4.70055
-3.32587
-1.37468
-2.80541
-2.83813
2.94035
0.925166
5.62571
0.299917
-3.62579
-3.43497
-2.83881
4.70821
1.22134
-0.910592
5.31868
-1.38492
1.469
0.529429
0.804802
1.13398
-0.604556
-0.0674011
1.20139
-0.812158
1.88577
0.766614
-1.98868
0.23486
-1.74218
2.97248
0.505401
-1.46429
0.859733
2.32908
-3.24094
4.77729
-1.54529
-3.232
7.10637
1.83924
-3.38453
4.11124
-4.25363
2.78697
-3.02027
-0.597565
-4.8512
-3.74887
-2.15296
4.44066
-3.30623
5.11215
1.36499
-4.86411
6.2291
-3.47111
1.31975
-2.64555
3.41216
-0.759186
-1.88636
2.48172
2.74531
-2.80647
0.372015
-0.324746
1.9722
-2.29694
-0.783637
-2.27526
-4.45416
4.70523
-2.19219
4.50275
2.17306
-1.96409
6.46684
1.76106
-3.72515
-3.09743
-3.63112
-1.40828
3.08173
-0.744557
-5.93166
-7.02873
5.87308
0.128206
-8.97765
10.0491
-1.07146
-5.14207
-0.565271
5.37595
-7.24609
0.647457
-4.8734
5.17571
6.25306
6.38127
-8.06495
-0.130634
-4.77365
1.25669
-6.03034
5.79771
-2.76461
6.30976
-6.76292
4.66907
-5.91202
5.32072
-0.709615
5.25414
-3.2582
2.1469
-6.07879
-5.13058
6.96123
-3.51418
7.85226
-4.0253
11.8776
-6.97977
7.02096
4.85661
-1.2829
-5.95512
-6.84711
5.56421
0.173846
5.84896
4.88244
-2.85981
4.43151
2.05417
-4.41047
-2.09553
-6.3559
1.94543
-3.23956
-1.69841
3.64385
3.12917
3.69105
1.24951
-3.21015
6.61806
-7.26941
-1.94391
-3.58442
6.80721
-1.243
3.71969
-7.30411
-2.47448
5.16654
-0.531256
-4.63529
0.745827
-5.47654
2.5141
-7.99065
6.26067
-7.04778
1.22439
-5.44138
-3.23449
-3.26597
-1.28241
-3.16514
-4.5041
3.22169
-0.994618
3.30881
-5.40876
4.8775
-1.84331
5.065
-3.32795
-0.413233
3.50785
0.836881
5.90188
-0.378525
-5.87871
-1.54331
5.66143
-4.11812
3.1649
-5.43383
0.227594
3.4869
3.61947
-7.17592
-0.905659
-6.78437
-2.37678
4.49202
3.16729
8.0048
1.05343
4.99471
-0.502689
6.04814
2.82863
2.70645
-3.80457
5.17636
2.08399
6.14487
-0.816264
2.62054
1.78665
1.85482
0.73418
2.22452
1.49183
3.15428
0.204415
-2.02151
3.10605
-5.94487
-0.519736
-5.31237
1.60122
3.98886
-2.38764
4.71061
-3.48927
0.592498
2.63102
-1.83627
-0.79475
-2.38667
-0.367265
0.834121
-1.04878
1.90851
1.92371
-2.74263
0.355955
-0.0646588
-3.68421
3.08492
-2.71291
0.032399
6.2615
-2.35406
0.057114
-1.0343
-2.21814
-2.61272
2.37786
6.05278
0.414063
3.00393
5.11929
3.09544
0.235629
4.23598
-5.88943
-4.08213
-6.02007
-0.22236
5.15359
1.73175
7.93946
6.58836
5.34536
-1.95875
-9.22816
7.30933
-2.13297
6.34434
-1.70905
-6.28159
6.4983
2.56447
-6.753
-0.294778
-6.57637
-8.70934
-0.325929
5.20343
-5.57595
5.16272
3.68803
0.575394
-2.77064
-0.495336
2.81788
-0.111431
5.93671
-1.09791
-5.51271
6.61061
-2.89095
2.37122
4.96566
0.353018
4.17091
0.68164
-4.83107
-7.21871
-1.14649
-2.09445
-4.37849
-0.185213
-1.7385
3.93495
-1.56373
2.56027
5.04688
5.63938
-1.59853
-4.07223
4.35502
-1.79475
3.84463
)
;

boundaryField
{
    wall-4
    {
        type            calculated;
        value           uniform 0;
    }
    velocity-inlet-5
    {
        type            calculated;
        value           uniform -3.75095;
    }
    velocity-inlet-6
    {
        type            calculated;
        value           uniform -5.62643;
    }
    pressure-outlet-7
    {
        type            calculated;
        value           nonuniform List<scalar> 8(6.91214 6.49851 6.20476 6.57872 6.50857 6.60881 6.55129 6.65054);
    }
    wall-8
    {
        type            calculated;
        value           uniform 0;
    }
    frontAndBackPlanes
    {
        type            empty;
        value           nonuniform List<scalar> 0();
    }
}


// ************************************************************************* //
