/*--------------------------------*- C++ -*----------------------------------*\
  =========                 |
  \\      /  F ield         | OpenFOAM: The Open Source CFD Toolbox
   \\    /   O peration     | Website:  https://openfoam.org
    \\  /    A nd           | Version:  9
     \\/     M anipulation  |
\*---------------------------------------------------------------------------*/
FoamFile
{
    format      ascii;
    class       volVectorField;
    location    "1";
    object      U;
}
// * * * * * * * * * * * * * * * * * * * * * * * * * * * * * * * * * * * * * //

dimensions      [0 1 -1 0 0 0 0];

internalField   nonuniform List<vector> 
918
(
(0.82153 -0.191723 0)
(0.0219162 2.97228 0)
(-0.164593 1.82852 0)
(0.688637 0.196231 0)
(0.0707884 1.73357 -8.64292e-20)
(-0.0860058 2.87389 -1.43374e-18)
(1.13658 1.76189 2.67879e-19)
(0.476426 0.284507 -2.83154e-20)
(0.887192 -0.0019599 0)
(0.0417824 1.77728 0)
(0.0168828 1.74151 0)
(0.941138 0.0123501 0)
(-0.0631261 3.05874 0)
(0.029246 2.92696 0)
(-0.0882821 2.71486 1.59885e-19)
(-0.0241249 1.7182 -1.02419e-19)
(0.689438 0.16137 2.30111e-18)
(0.236941 2.05278 2.51959e-19)
(0.980635 0.0334062 0)
(0.0397288 1.72698 0)
(0.742884 0.128919 7.6526e-20)
(0.682216 -0.057185 0)
(0.856271 0.000852049 0)
(1.05482 0.0540471 0)
(0.850344 0.0589108 0)
(0.0378434 2.98682 0)
(-0.0362395 2.86183 4.55648e-19)
(-0.187131 1.74181 0)
(-0.0323433 1.65844 0)
(-0.209141 1.71567 0)
(0.0418443 1.75089 0)
(-0.0389352 1.70532 6.80043e-20)
(-0.0300642 1.72367 0)
(-0.053954 3.02651 -4.16e-23)
(-0.00751226 2.97918 1.21143e-18)
(0.0221342 3.01158 0)
(0.9821 -0.0051948 0)
(0.818068 1.27469 5.81634e-19)
(1.16796 1.67601 3.6716e-20)
(1.26464 1.55353 7.30111e-20)
(0.972375 1.87203 -6.50519e-20)
(0.93229 1.94029 4.50085e-19)
(0.526156 0.302454 2.70807e-20)
(0.535992 0.281408 0)
(1.37084 0.785911 0)
(0.462642 0.31692 1.14666e-19)
(0.417397 0.286128 -1.19012e-19)
(0.982345 -0.0164066 0)
(1.00719 -0.000316067 0)
(0.891365 -0.00277837 0)
(0.939251 -0.0846626 0)
(0.97054 -0.00302594 0)
(0.929807 0.0176292 0)
(-0.00258994 1.60403 -1.07064e-18)
(0.0344325 1.83069 0)
(0.0271633 1.83049 0)
(-0.0202371 1.79795 0)
(-0.0139924 1.8015 0)
(-0.0148745 1.71985 0)
(0.0285616 1.76167 0)
(0.0112232 1.7458 0)
(-0.00124519 1.74206 0)
(-0.00893014 1.70541 0)
(1.00895 -0.00254662 0)
(0.965272 0.0266345 0)
(0.958432 0.00344616 0)
(0.949442 -0.00750888 0)
(0.942746 -0.00218987 0)
(-0.00510721 2.9729 4.64839e-19)
(0.0284698 2.92085 0)
(-0.0357727 2.94967 0)
(-0.0707138 3.08703 2.53795e-24)
(-0.0930617 2.94416 -7.65344e-19)
(-0.0149371 3.06783 0)
(0.0288496 2.97804 0)
(0.0202969 2.9852 6.23542e-25)
(0.0249955 2.92026 0)
(0.0786881 2.98414 0)
(0.0919631 2.90027 0)
(0.139043 2.85302 0)
(-0.117302 2.88663 0)
(-0.0053605 2.76593 -1.48564e-19)
(-0.123967 2.65603 0)
(-0.00240773 1.7352 0)
(-0.0235135 1.74267 1.0104e-19)
(0.00695908 1.71574 -1.20801e-19)
(0.723502 0.165394 -7.88051e-19)
(0.729057 0.148445 -7.648e-19)
(0.69158 0.221229 -2.37399e-18)
(0.660206 0.203834 -1.51445e-18)
(0.201126 1.39474 0)
(0.355877 2.11291 -2.91631e-19)
(0.465872 2.10044 5.19797e-19)
(0.987603 -0.00431842 0)
(0.970096 -0.00175044 0)
(0.895186 -0.0157972 0)
(1.01695 0.0303347 0)
(0.951012 0.0739809 -8.14264e-18)
(1.02277 0.114957 6.05517e-18)
(0.0300901 1.76427 0)
(0.00788653 1.73472 0)
(0.0310345 1.69842 0)
(-0.022357 1.73934 0)
(-0.0223646 1.74605 0)
(0.815476 0.155757 5.67103e-20)
(0.379497 0.354102 0)
(1.03653 0.0220196 0)
(0.996074 -0.00518604 0)
(0.940529 0.0285735 0)
(0.888644 0.0958184 0)
(0.892964 0.0200266 0)
(1.1383 -0.0164432 0)
(0.837995 0.0351149 0)
(0.817285 0.0281104 3.61646e-18)
(-0.0583963 2.85531 2.66766e-19)
(-0.0264286 2.96882 0)
(-0.0493976 3.06313 0)
(-0.00635049 2.91946 0)
(-0.0075035 2.94261 3.87702e-19)
(0.0405899 2.87638 0)
(-0.0257641 2.95021 -1.2883e-18)
(-0.113932 2.88567 4.5149e-19)
(0.0403406 1.74934 0)
(-0.00874321 1.76076 0)
(-0.00660583 1.72771 -3.87691e-21)
(-0.0460421 1.74387 0)
(0.023286 1.70236 0)
(1.00116 0.00225178 0)
(0.986788 -0.0161207 0)
(0.974603 -0.00468894 0)
(0.996223 -0.00266606 0)
(0.975148 0.0175129 0)
(0.908319 1.32904 -7.25954e-19)
(0.883325 1.23057 0)
(0.820161 1.33335 9.24207e-20)
(0.781839 1.24777 0)
(1.2136 1.43664 1.32461e-20)
(1.36413 1.26129 -1.34468e-19)
(0.570916 2.11102 0)
(0.791127 2.01609 0)
(0.712735 2.05185 0)
(0.533751 1.26429 -5.59227e-19)
(0.563 0.305623 0)
(0.568692 0.250353 4.04636e-19)
(1.2338 1.21011 0)
(1.26922 0.952535 0)
(1.37697 1.01438 3.24737e-19)
(1.32425 0.753922 0)
(1.38183 0.611802 8.07162e-20)
(0.990046 0.0252471 0)
(0.996011 -0.0134924 0)
(0.98935 -0.00946931 0)
(0.995921 0.00373364 0)
(0.992523 -0.0267107 0)
(0.965703 0.00981114 0)
(0.984783 0.00354112 0)
(0.950201 -0.00190574 0)
(0.897643 0.00860913 0)
(-0.00821702 1.62525 5.5457e-19)
(0.00481954 1.56328 0)
(0.02554 1.65853 1.06645e-18)
(0.032127 1.66287 -9.41957e-19)
(0.113943 2.01857 -2.05093e-19)
(0.00902064 1.91433 0)
(0.0316016 1.95234 0)
(-0.00923475 1.80042 0)
(-0.0013097 1.74543 0)
(-0.0294451 1.73484 -3.9101e-21)
(-0.0119599 1.71353 0)
(0.00894958 1.74387 -2.82277e-19)
(0.0191511 1.72854 5.25762e-19)
(0.0289178 1.74984 0)
(0.0248943 1.75555 0)
(0.00585911 1.72161 0)
(0.00142575 1.75106 0)
(-0.00462234 1.75847 0)
(1.03082 0.017227 0)
(1.01884 0.00617614 0)
(1.01203 0.00131447 0)
(0.982683 -0.00692736 0)
(0.96948 -0.0078871 0)
(0.973993 0.00427696 0)
(0.963181 0.0184676 0)
(0.935797 -0.00142746 0)
(0.0411657 3.07292 -4.12973e-21)
(0.0584238 3.04334 0)
(0.0529047 3.01009 0)
(0.0264735 2.93328 0)
(0.643619 3.05994 0)
(0.914531 2.49143 4.21663e-19)
(-0.0394079 2.80947 0)
(-0.0674503 2.73829 0)
(-0.00257239 1.80292 0)
(-0.0140173 1.69136 0)
(0.0014913 1.74652 0)
(0.0512697 1.75487 -3.71083e-20)
(0.0038814 1.80064 0)
(0.0322948 1.77437 0)
(0.031812 1.72647 4.28692e-20)
(0.0200944 1.7489 1.78661e-19)
(-0.00227695 1.72451 1.23678e-19)
(0.0141002 1.68603 0)
(0.75289 0.153352 1.25187e-18)
(0.746421 0.0853104 -1.23661e-18)
(0.212369 1.41644 0)
(0.233966 1.34667 -3.32497e-19)
(0.144386 1.49799 -1.01828e-18)
(0.102176 1.47825 1.01848e-18)
(0.987783 -0.0104324 0)
(0.986504 -0.0242382 0)
(0.985909 0.00187553 0)
(0.96765 0.00996278 0)
(0.00529472 1.7673 0)
(0.0276177 1.74666 0)
(0.00754447 1.72946 0)
(0.424984 0.293686 9.65075e-19)
(0.459843 0.263752 -9.16578e-19)
(0.379598 0.289578 0)
(1.18862 0.102915 1.22569e-19)
(1.24287 0.0400879 0)
(1.12443 0.0437933 0)
(1.06927 0.0019355 0)
(0.777269 0.101101 0)
(0.815775 0.0581753 -5.77414e-18)
(0.762365 0.0500335 2.20762e-18)
(-0.0303206 2.97351 2.25561e-19)
(0.0505174 2.91293 -1.38823e-20)
(0.0881616 3.01289 -8.73004e-21)
(0.116493 3.02515 1.84266e-19)
(-0.0928289 2.96376 1.89386e-20)
(-0.151115 2.91964 -6.14927e-23)
(-0.104993 3.05338 -2.34171e-19)
(0.110884 3.01411 1.67284e-19)
(0.121839 3.06938 -2.13591e-19)
(1.00699 -0.000704577 0)
(0.990873 0.0414813 0)
(0.981976 0.0285015 0)
(0.986761 -0.0111565 0)
(0.978365 -0.00381958 0)
(0.954894 -0.00295334 0)
(0.979442 -0.0136712 0)
(0.993027 0.0139904 0)
(0.971866 0.00842446 0)
(0.966735 1.29099 -6.08445e-19)
(0.889188 1.2731 0)
(0.670685 1.24662 1.66473e-19)
(0.695431 1.33441 1.2913e-18)
(0.776527 1.32902 -7.86528e-19)
(0.728459 1.26369 1.50943e-18)
(0.508339 1.31845 2.74718e-18)
(0.5077 1.27326 5.04855e-19)
(0.661789 0.238426 1.5853e-18)
(0.613859 0.272887 3.98701e-19)
(0.627104 0.23743 7.54998e-19)
(1.28326 0.553506 -6.35522e-19)
(1.33623 0.372958 -7.49256e-19)
(0.000624357 1.69602 4.16717e-19)
(0.00324528 1.6677 0)
(1.07409 0.0289627 0)
(1.0495 0.00756525 0)
(1.03503 -0.0047679 0)
(0.0241608 3.08153 0)
(-0.0061811 2.98638 4.29178e-19)
(-4.60371e-05 2.9898 0)
(-0.0120751 2.89971 -4.63269e-19)
(-0.002619 3.07682 9.38714e-20)
(0.0220986 3.08137 0)
(0.856877 1.36897 4.90626e-20)
(0.919643 1.82477 -2.76693e-19)
(0.713174 1.4774 -2.14549e-19)
(-0.0486449 2.91556 -2.43419e-19)
(-0.0373431 2.84666 0)
(-0.0675005 2.79717 0)
(-0.0299921 1.75889 -1.61081e-20)
(0.0312019 1.72077 -4.50508e-19)
(-0.046932 1.69692 1.31606e-20)
(0.249369 1.38014 1.06018e-18)
(0.278974 1.31733 -7.16437e-19)
(0.0207432 1.60397 7.81193e-19)
(0.0800164 1.54811 -8.73405e-19)
(0.0594173 1.53306 6.88168e-20)
(-0.0815407 3.09319 -2.45836e-19)
(-0.0761688 3.10347 3.12981e-19)
(0.00746089 2.95376 2.45228e-19)
(0.0730665 2.97606 -1.938e-19)
(0.10246 2.90992 -2.49549e-19)
(0.00405377 3.06612 -7.17306e-19)
(-0.0631372 3.05958 8.04561e-19)
(0.534452 1.30756 0)
(0.595625 1.32733 -2.75947e-18)
(0.567976 1.22828 1.22808e-18)
(0.426345 1.35933 1.44734e-18)
(0.421624 1.288 -2.26323e-18)
(1.25511 0.185017 4.49101e-19)
(1.2987 0.366357 0)
(1.32244 0.245323 -4.03604e-19)
(-0.000680944 1.7304 -5.02583e-21)
(-0.0122883 1.7035 0)
(0.0121578 1.69265 0)
(0.299069 1.38295 -3.75674e-19)
(0.359346 1.35526 -8.43109e-19)
(0.380095 1.33242 1.57368e-18)
(0.983522 -0.0490364 0)
(1.05311 -0.0853115 1.5035e-18)
(0.0517653 1.75195 0)
(-0.0138095 1.7407 0)
(1.05673 -0.0171394 5.13443e-20)
(0.91168 -0.0180215 3.20472e-18)
(0.0271604 1.79368 4.90182e-20)
(0.0865082 1.80524 0)
(-0.0711369 2.94451 2.16597e-19)
(-0.0193802 2.57328 0)
(1.1803 0.634839 -4.23368e-19)
(1.03599 -0.0128183 -2.11744e-20)
(1.00631 0.0423777 0)
(0.998504 0.00135109 -4.03477e-21)
(0.0414914 1.90055 0)
(0.133249 1.73591 0)
(-0.0373782 1.78225 0)
(0.0922122 1.79894 2.64688e-19)
(0.00580125 1.79383 1.71881e-19)
(0.997693 -0.00807183 1.39115e-20)
(1.05466 0.0751812 0)
(1.08018 0.0447277 0)
(-0.0152076 1.71945 0)
(0.0407716 1.76947 0)
(-0.0401065 1.77992 0)
(0.227258 1.9664 7.66289e-20)
(0.981586 -0.0850463 0)
(0.984884 -0.0619849 0)
(0.966971 0.0500177 1.92152e-18)
(1.00237 0.0289637 -2.26381e-18)
(1.10891 -0.0542603 0)
(0.00608259 1.73012 0)
(0.0186567 1.73639 0)
(-0.00184616 1.76099 0)
(-0.0140411 1.81076 0)
(-0.0489739 1.76386 0)
(0.00503913 1.7121 0)
(1.01524 0.00670137 0)
(1.02838 -0.0153505 -2.71334e-21)
(0.867715 1.69747 -1.80586e-20)
(0.971763 -0.0738807 -1.91759e-18)
(1.04722 0.0388849 2.29056e-18)
(1.11083 0.0285689 0)
(0.978457 0.000415718 1.86657e-18)
(1.02031 0.0623104 -2.3122e-18)
(0.995274 0.0292837 0)
(0.0212825 1.78969 0)
(0.0575397 1.76252 1.39336e-19)
(-0.0146925 1.73649 -9.6358e-20)
(1.15903 0.292968 2.52612e-18)
(1.11329 0.0815464 0)
(-0.298418 3.00092 -3.37958e-19)
(-0.0554442 3.1346 -8.73837e-21)
(-0.151257 2.97382 8.61814e-19)
(-0.0300658 2.932 -8.20421e-20)
(-0.0225146 2.89146 0)
(-0.0516196 2.96997 1.18889e-19)
(-0.0899544 3.09415 3.09923e-19)
(-0.0701616 3.01408 -2.16199e-19)
(-0.10472 3.08554 0)
(0.64587 0.281148 0)
(0.494643 0.348233 0)
(1.08189 0.81524 1.24012e-18)
(1.14618 0.935217 -1.55773e-18)
(1.121 0.580981 0)
(1.12854 0.616596 0)
(1.03073 0.0201866 -3.48857e-18)
(0.98114 0.00157863 4.51439e-18)
(1.03824 -0.0620122 0)
(1.00248 -0.0556637 0)
(0.926339 0.0604786 0)
(1.03085 -0.0278396 0)
(1.00592 0.0206629 0)
(0.99643 -0.0473573 0)
(1.01773 -0.0962733 0)
(0.960053 0.000945625 0)
(0.0341326 1.88523 0)
(0.00416879 1.81051 0)
(0.118588 1.85091 0)
(0.178706 1.89295 0)
(0.109195 1.65341 0)
(0.030064 1.6685 -5.54153e-19)
(0.133153 1.72533 0)
(0.058083 1.68393 3.60462e-19)
(0.0898267 1.76463 -3.7776e-19)
(-0.0118601 1.80658 0)
(0.0605947 1.74326 0)
(-0.0444354 1.76393 0)
(-0.0629211 1.75904 0)
(-0.029143 1.76171 -1.60008e-19)
(-0.0513017 1.7466 3.43177e-19)
(0.067326 1.80513 2.70597e-19)
(0.00668566 1.76539 0)
(0.00921694 1.77901 -4.64522e-19)
(0.0089243 1.73626 -3.4618e-19)
(0.0251681 1.79769 9.86061e-20)
(-0.124787 1.62731 -4.26273e-19)
(0.0796965 1.73002 -3.41177e-19)
(0.988315 -0.0254769 3.15746e-18)
(0.988702 -0.059569 -4.05638e-18)
(0.991505 0.0274845 -3.29852e-18)
(0.91596 0.00556917 4.29242e-18)
(1.04911 0.0501958 0)
(1.03631 0.000682864 0)
(1.03543 0.0268541 0)
(1.06374 0.00586238 0)
(1.02186 -0.00843389 0)
(1.08009 0.0657875 0)
(1.07862 0.031639 0)
(1.04994 0.0261285 0)
(-0.173672 1.70945 -1.13571e-20)
(0.0495692 1.76829 0)
(-0.0569502 1.73382 0)
(0.0396171 1.7449 7.20019e-20)
(0.0522598 1.78224 -3.6028e-21)
(0.010863 1.81869 5.89191e-20)
(-0.070768 1.72445 -5.76105e-20)
(-0.0517598 1.7596 0)
(-0.0235177 1.77653 0)
(0.0838545 1.7379 0)
(-0.0497323 1.76109 0)
(-0.068759 1.79054 0)
(0.391049 1.90058 -2.86144e-19)
(0.443263 1.99867 -2.84507e-21)
(0.315473 1.47343 -2.51501e-19)
(0.235203 1.59741 6.72315e-19)
(0.317544 1.74215 1.61667e-19)
(1.02867 0.0209653 0)
(0.993656 0.025753 0)
(1.02441 0.0618902 0)
(0.967196 -0.0446502 0)
(1.00025 -0.013436 0)
(0.928702 0.0451536 0)
(0.982206 0.117371 0)
(1.00341 0.0826489 0)
(0.991318 -0.0312817 3.4108e-18)
(1.00545 -0.0369445 -4.38563e-18)
(1.01815 0.0111373 -3.3292e-18)
(0.978154 0.0221805 4.35479e-18)
(0.859655 1.69997 0)
(0.806363 1.71978 -2.33833e-19)
(0.874043 1.56839 -3.12132e-19)
(0.974803 1.50998 4.18176e-19)
(0.876069 1.5489 2.52693e-18)
(0.858921 0.105205 1.37805e-18)
(1.11992 0.0933759 0)
(1.1513 0.227015 -2.06813e-18)
(1.11843 0.102254 -8.5224e-20)
(0.969679 0.139694 0)
(-0.649906 2.76301 6.58755e-19)
(-0.398769 2.77004 -6.1282e-19)
(-0.36874 3.13381 1.09331e-19)
(-0.373597 1.40925 1.69264e-19)
(-0.100074 2.71779 1.02725e-19)
(0.0208515 2.86855 0)
(0.0738762 2.76229 -1.354e-19)
(-0.518795 2.75798 -1.68953e-18)
(-0.515336 2.62759 0)
(-0.0566269 3.02563 1.27485e-20)
(-0.0807603 3.07846 -2.06018e-19)
(-0.0512415 3.07066 3.40201e-19)
(-0.047161 3.09625 0)
(-0.0689765 3.01067 0)
(1.05551 1.79175 0)
(0.202703 1.08436 -1.15631e-18)
(1.08954 1.17239 4.81577e-19)
(0.927146 1.41354 0)
(0.797256 1.14891 -4.97184e-19)
(1.02322 1.12083 5.91619e-20)
(0.246516 -0.153929 -7.2486e-19)
(0.642394 0.274977 -1.13469e-20)
(0.628106 0.309809 8.46645e-19)
(0.462532 0.39468 4.88895e-20)
(0.399981 0.326477 -1.90878e-18)
(0.589128 0.391808 0)
(0.600055 0.454579 1.34413e-18)
(0.591968 0.361158 0)
(0.478298 0.371534 0)
(0.514339 0.352122 0)
(0.602332 0.731773 1.11483e-18)
(1.19573 0.250526 -2.01125e-18)
(1.15254 0.440594 0)
(1.20555 0.278691 0)
(0.767303 0.213258 1.31764e-18)
(0.623593 0.66144 -8.68362e-19)
(0.56124 0.528596 1.63308e-18)
(0.833992 0.399829 -1.86184e-18)
(0.992028 -0.00291614 2.36948e-18)
(1.00677 0.106206 -2.41859e-18)
(0.995412 0.0671577 0)
(1.0186 -0.0266433 0)
(1.0064 -0.0423031 -2.22935e-18)
(1.01014 0.018255 2.20762e-18)
(0.97825 0.0496547 0)
(0.958903 -0.00128141 0)
(1.02665 -0.0151948 0)
(0.982181 -0.0160811 0)
(1.02503 -0.0207205 0)
(0.9805 -0.0453041 0)
(0.0817027 1.80929 0)
(0.112402 1.79455 0)
(0.0781612 1.82861 -3.34268e-19)
(0.235108 1.96145 -8.4327e-20)
(0.232854 1.92022 -2.67706e-19)
(0.159558 1.93814 3.89707e-19)
(0.0116059 1.78938 0)
(0.2366 1.72878 -4.58529e-19)
(0.0705518 1.81815 0)
(0.301273 1.7222 -2.251e-19)
(0.22199 1.6048 9.11603e-19)
(0.252397 1.73447 4.04583e-19)
(0.186087 1.8364 -1.60856e-19)
(0.123931 1.74082 1.30237e-19)
(0.208209 1.82944 -5.02185e-19)
(0.215191 1.73777 0)
(0.238777 1.71001 3.59616e-19)
(0.0318147 1.69398 -1.73584e-19)
(0.0475425 1.70974 0)
(-0.00342101 1.7234 4.37759e-19)
(-0.0341803 1.71185 0)
(0.0194917 1.71062 -4.05443e-19)
(0.00365549 1.68617 0)
(0.0379769 1.74466 -2.22018e-19)
(0.0877957 1.75184 0)
(0.0614602 1.73789 0)
(0.0382086 1.78222 2.65384e-19)
(0.0396932 1.71722 6.20797e-20)
(0.0632822 1.77163 4.58185e-19)
(0.0166052 1.70691 4.27164e-21)
(0.115134 1.67153 9.72985e-20)
(0.0666814 1.63884 8.49294e-20)
(-0.00892207 1.73394 0)
(-0.0977736 1.76881 0)
(-0.0178652 1.74481 3.56018e-19)
(-0.072237 1.76422 4.53873e-19)
(0.0167207 1.7924 -5.36985e-19)
(-0.000881671 1.7646 0)
(0.0441117 1.72612 -3.72152e-19)
(-0.0689173 1.68847 7.16095e-20)
(-0.031668 1.80987 -1.12662e-20)
(0.122193 1.83195 -1.12737e-19)
(0.0775727 1.63895 -1.00419e-19)
(-0.0310334 1.70468 3.9389e-19)
(0.991069 0.0468809 -2.36094e-18)
(0.992473 -0.0673516 2.18582e-18)
(0.986377 0.0510257 0)
(0.966391 -0.0545241 3.0783e-18)
(0.910883 0.127233 -3.40504e-18)
(0.943 0.0539832 3.67624e-18)
(0.964321 -0.0245861 -3.88366e-19)
(1.05292 -0.0724771 0)
(1.02392 -0.0173429 2.17812e-18)
(1.00637 -0.0519482 -2.16717e-18)
(0.967776 0.00388957 -1.22153e-19)
(0.985534 0.0666158 1.02482e-18)
(0.962124 0.0779517 0)
(0.972745 0.0800725 -3.69925e-19)
(0.98302 0.0425427 0)
(0.967884 0.0577532 0)
(1.02066 0.0816882 0)
(0.969503 0.00847825 0)
(1.02292 0.0683176 7.69148e-19)
(1.03307 0.0253143 -1.74581e-18)
(0.980296 -0.0146523 -8.09846e-19)
(1.00653 -0.000944426 -8.97516e-19)
(1.05494 0.0568812 1.7342e-18)
(1.00494 0.0598201 0)
(0.979076 0.0201884 0)
(0.0331377 1.83129 -2.54677e-20)
(0.139307 1.7112 -1.75727e-20)
(0.03932 1.69869 0)
(0.0410272 1.79401 2.64753e-20)
(-0.112733 1.7357 2.89657e-20)
(-0.006789 1.7148 -3.76733e-20)
(-0.0807119 1.77857 3.18725e-19)
(0.038582 1.76598 -1.56714e-20)
(0.143184 1.72002 8.47008e-20)
(-0.0434768 1.76865 -1.46259e-19)
(-0.0851463 1.77837 1.79078e-19)
(0.0239004 1.71232 -2.04806e-20)
(-0.0164203 1.76288 2.34325e-19)
(0.474462 1.78568 1.94681e-19)
(0.37983 1.7592 5.80375e-19)
(0.758817 1.785 2.26106e-19)
(0.592021 1.9241 2.73563e-21)
(0.649455 1.93005 0)
(0.27939 1.45644 2.92084e-19)
(0.270511 1.42163 3.62983e-19)
(0.227958 1.49869 5.41607e-20)
(0.354902 1.52963 -1.05044e-18)
(0.363661 1.48629 9.4438e-19)
(0.288834 1.50043 0)
(0.18141 1.47049 -6.09608e-19)
(0.0723494 1.62346 1.40968e-18)
(0.157164 1.63701 1.83907e-20)
(0.0334064 1.56905 -1.82782e-18)
(0.636015 1.40914 1.61029e-18)
(0.466555 1.45185 0)
(1.01356 0.0947454 7.36811e-20)
(1.00161 -0.0935461 -6.46399e-20)
(0.966356 -0.11022 -1.15591e-18)
(1.01651 0.00860645 1.13522e-18)
(0.99236 0.0579909 0)
(0.797191 1.5964 0)
(0.7858 1.59251 0)
(0.911188 1.32542 0)
(0.638443 1.40627 0)
(0.865568 1.54425 -3.03105e-21)
(0.830946 1.52445 0)
(0.58095 1.48967 1.35185e-20)
(0.463334 1.49455 0)
(0.568954 1.50041 -1.13899e-18)
(0.560489 1.47527 7.64458e-19)
(0.826518 0.118939 0)
(0.786762 0.119651 3.71992e-19)
(0.888203 0.098274 2.26538e-18)
(0.844025 0.0912718 -8.0742e-19)
(0.841561 0.116494 -2.56689e-18)
(1.05001 0.169487 -2.66863e-18)
(0.806223 0.347156 -6.18265e-20)
(0.877881 0.229517 1.99423e-18)
(0.92493 0.125428 2.01618e-18)
(0.858584 0.179344 -3.11292e-18)
(0.872512 0.26055 3.7134e-19)
(0.744167 0.297872 -9.28357e-19)
(0.826399 0.259084 0)
(0.949041 0.124752 1.49362e-18)
(0.983166 0.187634 0)
(0.968814 0.166105 0)
(1.01467 0.178956 8.67544e-19)
(0.963016 0.274189 -1.4992e-20)
(0.907393 0.144782 -4.91086e-19)
(0.983604 0.130013 0)
(0.987807 0.0581055 1.70161e-18)
(0.968319 -0.0364842 2.10071e-18)
(1.04226 0.0588385 -1.6068e-18)
(0.996301 0.0980147 -1.41787e-18)
(0.941681 -0.0187371 -2.20298e-18)
(0.910998 0.187898 0)
(0.958776 0.0085854 0)
(0.907736 0.0913718 -1.30755e-18)
(0.894798 -0.0159093 4.89785e-19)
(1.01155 0.119142 1.92264e-18)
(1.03661 0.111962 -2.46243e-18)
(0.954537 0.117336 2.14917e-18)
(0.922035 0.167239 0)
(0.996178 0.126297 0)
(0.941454 0.0755264 -9.80599e-19)
(0.975982 0.0756068 -1.5741e-18)
(0.643019 1.51974 5.61111e-19)
(0.611349 1.56053 -6.08732e-19)
(0.759051 1.57713 -8.70431e-19)
(0.737192 1.76457 2.20422e-19)
(0.907647 1.60822 -2.14867e-18)
(1.07171 1.76212 5.61376e-19)
(1.07098 1.64262 -5.10827e-20)
(0.87263 1.70632 -9.10636e-19)
(0.81452 1.67115 1.3533e-18)
(0.867833 2.05953 2.5782e-19)
(1.01428 1.98933 -2.50062e-19)
(1.03257 2.00563 0)
(0.387203 1.32644 -1.25192e-19)
(-0.812584 1.74164 4.45031e-19)
(-0.292524 0.253713 5.90248e-19)
(-0.409666 0.602368 -8.41376e-20)
(0.351722 0.37289 1.07964e-18)
(0.298954 0.347646 -1.95384e-18)
(0.263148 0.370234 1.5503e-18)
(0.241535 0.28365 -3.95058e-19)
(0.346705 0.227614 9.91257e-19)
(0.742665 0.281484 -7.78024e-19)
(0.649699 0.324976 0)
(0.664403 0.262897 6.63477e-21)
(0.521856 0.481333 7.31017e-19)
(0.395223 0.530543 -2.63782e-18)
(0.360106 0.422208 -4.96817e-20)
(0.424569 0.394593 0)
(0.461154 1.00151 1.03415e-18)
(0.717845 0.939956 1.16009e-18)
(0.617909 1.08356 -1.35643e-18)
(0.703518 0.950793 -5.15185e-19)
(0.912704 0.920162 -1.68775e-19)
(0.90743 1.05045 1.73433e-19)
(0.722839 0.672995 -1.85289e-18)
(0.763271 0.929436 4.84901e-19)
(0.962289 0.833619 0)
(0.869493 0.769708 -6.79293e-19)
(0.850996 0.323291 6.25929e-19)
(1.00463 0.376634 1.10441e-18)
(1.05602 0.256191 1.06747e-18)
(0.881439 0.4246 -1.23662e-18)
(1.04474 0.362151 0)
(1.01456 0.369353 0)
(0.736777 0.424434 -1.59961e-20)
(0.76792 0.258186 0)
(0.686112 0.291404 9.34745e-19)
(0.883025 0.25551 -2.79064e-20)
(0.865642 0.494155 5.02717e-18)
(0.74066 0.536185 1.40876e-18)
(0.761137 0.501975 -1.33648e-18)
(0.712627 0.408106 1.41351e-18)
(0.661993 0.521663 8.12349e-19)
(0.613207 0.411557 -7.82291e-19)
(0.995173 0.0934087 1.849e-18)
(0.962139 -0.07987 0)
(0.988631 -0.011954 1.24637e-18)
(0.904718 0.0990378 -2.78615e-18)
(1.02838 -0.0244557 1.32313e-18)
(0.970562 0.0509428 -2.8036e-18)
(1.03231 -0.00744245 0)
(0.975389 -0.0373542 -5.92127e-19)
(1.00287 0.0662487 1.50976e-18)
(0.964961 0.00733196 -7.91332e-19)
(0.946521 -0.0877194 5.64026e-19)
(-0.0603232 1.79051 0)
(0.190948 1.71216 0)
(0.0297978 1.7818 0)
(-0.00314008 1.82638 0)
(0.0575041 1.79574 6.30623e-19)
(0.0674919 1.78175 -1.77158e-19)
(0.0722198 1.69231 -1.96268e-19)
(0.14032 1.70203 1.95248e-19)
(-0.0529745 1.74323 -5.57482e-19)
(0.0547695 1.71469 4.10837e-19)
(0.0176902 1.80335 1.81115e-20)
(0.0282484 1.76086 -4.23042e-19)
(0.00187779 1.74973 -6.86911e-20)
(0.14128 1.77749 -6.16671e-20)
(0.0120301 1.68835 -4.7317e-19)
(0.0980407 1.68186 0)
(0.116494 1.71361 2.61784e-19)
(0.0139742 1.77949 1.67714e-19)
(0.142077 1.63981 -2.38648e-19)
(0.140968 1.62154 0)
(0.15629 1.58344 -9.94901e-19)
(0.150041 1.60552 7.40853e-19)
(0.176197 1.64298 -6.17675e-19)
(0.189844 1.67021 4.14301e-19)
(0.0130046 1.52167 0)
(0.0462471 1.67241 -3.91407e-19)
(-0.0102706 1.65992 -6.02225e-19)
(-0.0333152 1.64937 0)
(0.0480165 1.80326 1.01528e-20)
(0.032299 1.76809 1.99615e-19)
(-0.00262942 1.8011 3.69318e-20)
(0.0440169 1.729 -5.9533e-19)
(-0.00963759 1.74908 1.62804e-19)
(-0.0469865 1.65997 2.19626e-19)
(0.0467853 1.79953 0)
(-0.0280116 1.84665 0)
(0.00298701 1.76357 2.00418e-19)
(0.0532303 1.74792 -6.58151e-20)
(-0.0377601 1.80522 0)
(-0.0314716 1.78514 1.38192e-19)
(0.0612472 1.74393 -2.83782e-19)
(0.952451 0.1655 0)
(1.0601 0.120716 -2.00472e-19)
(0.971927 0.0502881 -1.37621e-18)
(0.913113 0.0115192 0)
(0.950455 -0.0819228 0)
(1.05336 -0.0865319 -5.06542e-20)
(0.966885 -0.103527 2.31768e-18)
(0.97142 -0.0117527 2.74882e-18)
(0.986086 0.00155475 0)
(1.00881 -0.00852895 0)
(0.971094 -0.0296493 1.38219e-18)
(0.975055 0.0350273 0)
(0.959565 0.078355 0)
(-0.0985277 1.8171 0)
(-0.0220645 1.65824 6.0144e-20)
(-0.0347324 1.67789 5.79236e-20)
(0.00538796 1.7825 0)
(0.143473 1.75296 1.41625e-19)
(0.0864118 1.76957 -3.42766e-20)
(0.0251198 1.74981 0)
(0.428483 1.63023 0)
(0.354816 1.56844 -1.06535e-18)
(0.371432 1.55562 0)
(0.450287 1.77361 1.20648e-18)
(0.539876 1.76436 0)
(0.523083 1.78489 -4.70102e-19)
(0.570827 1.51063 -3.54694e-20)
(0.575136 1.42397 -1.96289e-18)
(0.590237 1.42244 2.46457e-18)
(0.469527 1.42097 4.36108e-19)
(0.489838 1.45902 0)
(0.566784 1.48207 0)
(0.630124 1.43006 0)
(0.495959 1.39115 -1.65526e-18)
(0.397891 1.51942 -1.03635e-18)
(0.354794 1.47063 -2.32976e-19)
(0.456479 1.51805 1.82173e-19)
(0.367498 1.46378 0)
(0.469109 1.44916 0)
(0.435608 1.42693 -4.30193e-19)
(0.392986 1.42672 0)
(0.472497 1.49929 0)
(0.535551 1.40852 -1.2962e-18)
(0.446791 1.27119 -8.93761e-20)
(0.71831 1.51159 0)
(0.641662 1.57547 2.07801e-18)
(0.685857 1.28639 -4.32498e-19)
(0.912733 1.18471 0)
(0.760801 1.097 7.40402e-19)
(0.406285 1.48737 0)
(0.446669 1.25857 0)
(0.741084 1.50511 -8.73872e-19)
(0.71102 1.54984 -6.03237e-19)
(0.701625 1.53176 1.00289e-18)
(0.708236 1.54245 -3.21076e-19)
(0.725047 1.46695 0)
(0.690116 1.49073 4.49835e-19)
(0.769606 1.50198 -7.12748e-19)
(0.765901 1.45588 -1.88144e-20)
(0.579406 1.52469 0)
(0.578582 1.57611 -4.92224e-19)
(0.636064 1.53843 0)
(0.808256 0.171799 0)
(0.804178 0.182531 0)
(0.729605 0.206392 0)
(0.789226 0.255125 -1.46204e-18)
(0.753502 0.207405 8.05693e-19)
(0.95884 -0.0258331 -1.00206e-18)
(0.899608 0.0460249 0)
(0.880063 0.0273506 4.3261e-19)
(0.839894 0.122375 1.7227e-18)
(0.829494 0.0252664 -1.11453e-18)
(0.834235 2.31116 1.11655e-19)
(0.852358 2.13669 0)
(0.790362 2.39021 2.13629e-19)
(0.151576 2.50262 -1.8494e-19)
(0.328091 2.08551 -7.0873e-19)
(0.162775 1.50725 1.48816e-18)
(0.243969 1.55 0)
(-0.146061 0.829997 -2.44949e-19)
(-0.0279502 1.01901 1.84801e-18)
(-0.233981 0.496789 -3.23415e-19)
(0.125255 0.484965 3.78598e-19)
(0.392162 0.53313 9.4834e-19)
(0.550698 0.5354 0)
(0.242456 0.775385 0)
(0.152678 0.720672 0)
(0.842693 0.729754 5.41612e-19)
(0.780805 0.555978 -1.35001e-18)
(0.868747 0.633683 1.13841e-18)
(0.820486 0.49239 -1.05159e-18)
(1.01783 0.614152 0)
(0.958752 0.650181 -3.46875e-19)
(0.756405 0.342793 -1.88018e-18)
(0.729726 0.306566 -2.33624e-18)
(0.616815 0.446555 1.48714e-18)
(0.65391 0.384626 -1.4235e-18)
(0.75003 0.333599 -1.10877e-18)
(0.715077 0.328962 1.40444e-18)
(1.03051 -0.00457612 -1.40446e-18)
(1.05508 0.020774 2.92289e-18)
(1.0461 0.0694431 1.77848e-18)
(1.05491 -0.0581585 -2.12994e-18)
(0.852143 0.00425378 0)
(0.83329 -0.0130608 -3.65985e-18)
(0.100366 1.68964 1.21122e-19)
(-0.00956551 1.73445 0)
(0.1184 1.77029 7.43585e-19)
(0.0408445 1.73055 -6.64901e-19)
(0.0553054 1.71934 3.66812e-19)
(0.0780682 1.79198 0)
(0.0818273 1.82678 0)
(0.0409884 1.71374 -7.19229e-20)
(-0.000264457 1.59002 6.43277e-20)
(0.0762648 1.61119 1.13462e-20)
(-0.16842 1.7892 -1.32058e-19)
(0.0248806 1.717 8.10833e-20)
(0.531211 1.59744 -1.42605e-18)
(0.573431 1.61337 1.52357e-18)
(0.467691 1.6983 -6.98379e-19)
(0.607183 1.62007 6.88728e-20)
(0.621137 1.69126 0)
(0.59293 1.76882 -4.40194e-19)
(0.5463 1.75772 4.44456e-19)
(0.556458 1.70272 6.60369e-19)
(0.611999 1.72313 0)
(0.650168 1.62281 0)
(0.547761 1.45058 1.55144e-18)
(0.253804 1.5214 2.20949e-18)
(0.264724 1.49086 -1.47966e-18)
(0.22215 1.52858 -2.49524e-19)
(0.360574 1.46819 5.2988e-19)
(0.250756 1.42902 -1.24187e-18)
(0.613096 1.44823 -1.37373e-18)
(0.726802 1.46324 0)
(0.62715 1.42289 -1.54694e-18)
(0.682107 1.46846 0)
(0.687529 1.50188 0)
(0.490371 1.84886 -8.87926e-19)
(0.507331 2.00526 -6.8206e-19)
(0.406876 2.05015 8.36754e-19)
(-0.568361 1.52637 0)
(-0.365605 1.45715 -7.32346e-19)
(0.00579359 1.56964 -9.69113e-19)
(0.348083 1.77037 0)
(0.0448437 2.16299 4.99361e-19)
(-0.302382 2.19426 0)
(0.469581 0.90166 -2.17083e-18)
(0.619513 0.931924 2.89467e-18)
(0.664819 0.737934 -2.7594e-18)
(0.331815 0.738311 -2.58156e-19)
(0.439706 0.710391 -1.02372e-18)
(0.565989 1.80824 5.01573e-19)
(0.635093 1.70812 -1.18291e-18)
(0.523811 1.83806 1.49334e-18)
(0.522292 1.73429 -1.00535e-18)
(0.603462 1.58981 -1.42021e-18)
(0.635769 1.70588 -1.15456e-19)
(0.66634 1.6614 1.19259e-18)
(0.534143 1.68779 8.90482e-20)
(0.536796 1.57217 6.37537e-19)
)
;

boundaryField
{
    wall-4
    {
        type            noSlip;
    }
    velocity-inlet-5
    {
        type            fixedValue;
        value           uniform (1 0 0);
    }
    velocity-inlet-6
    {
        type            fixedValue;
        value           uniform (0 3 0);
    }
    pressure-outlet-7
    {
        type            zeroGradient;
    }
    wall-8
    {
        type            noSlip;
    }
    frontAndBackPlanes
    {
        type            empty;
    }
}


// ************************************************************************* //
